You are running Q-Chem version: 5.4.0

#
# job setting
#
local host:  exp-6-19
current dir: /expanse/lustre/scratch/theleonzhang/temp_project/Hydrogenated_Impropers_Test
input file:  Methylthiophene_Phi_0_Theta_230_Methylthiophene_Hydrogenated_Improper.qcin
output file: 
nprocs     : 0
nthreads   : 1
#
# qchem installation setting
#
QC:          /cm/shared/apps/spack/cpu/opt/spack/linux-centos8-zen2/gcc-10.2.0/qchem-5.4-akfmr7b3t57bfs6qan3padb2wnb2i7cl
QCAUX:       /cm/shared/apps/spack/cpu/opt/spack/linux-centos8-zen2/gcc-10.2.0/qchem-5.4-akfmr7b3t57bfs6qan3padb2wnb2i7cl/qcaux
QCPROG:      /cm/shared/apps/spack/cpu/opt/spack/linux-centos8-zen2/gcc-10.2.0/qchem-5.4-akfmr7b3t57bfs6qan3padb2wnb2i7cl/exe/qcprog.exe_s
QCPROG_S:    /cm/shared/apps/spack/cpu/opt/spack/linux-centos8-zen2/gcc-10.2.0/qchem-5.4-akfmr7b3t57bfs6qan3padb2wnb2i7cl/exe/qcprog.exe_s
PARALLEL:    -DSERIAL
QCMPI:       mpich
#
# qchem directory setting
#
qcrun:       qchem2424311
QCSCRATCH:   .
QCLOCALSCR:  
QCTMPDIR:    .
QCFILEPREF:  ./qchem2424311
QCSAVEDIR:   
workdirs:    ./qchem2424311
workdir0:    ./qchem2424311
partmpdirs =  
#
# parallel setting
#
QCRSH:           ssh
QCMPI:           mpich
QCMPIRUN:        /cm/shared/apps/spack/cpu/opt/spack/linux-centos8-zen2/gcc-10.2.0/qchem-5.4-akfmr7b3t57bfs6qan3padb2wnb2i7cl/bin/mpi/mpirun_qchem
QCMACHINEFILE:   ./qchem2424311/hostfile

#
# env setting
#
exported envs:   QC QCAUX QCSCRATCH QCRUNNAME QCFILEPREF QCPROG QCPROG_S GUIFILE

Running Job 1 of 1 Methylthiophene_Phi_0_Theta_230_Methylthiophene_Hydrogenated_Improper.qcin
qchem Methylthiophene_Phi_0_Theta_230_Methylthiophene_Hydrogenated_Improper.qcin_2424311.0 ./qchem2424311/ 0
/cm/shared/apps/spack/cpu/opt/spack/linux-centos8-zen2/gcc-10.2.0/qchem-5.4-akfmr7b3t57bfs6qan3padb2wnb2i7cl/exe/qcprog.exe_s Methylthiophene_Phi_0_Theta_230_Methylthiophene_Hydrogenated_Improper.qcin_2424311.0 ./qchem2424311/
                  Welcome to Q-Chem
     A Quantum Leap Into The Future Of Chemistry


 Q-Chem 5.4, Q-Chem, Inc., Pleasanton, CA (2021)

 License issued to: University of California, San Diego (site)

 E. Epifanovsky,  A. T. B. Gilbert,  Xintian Feng,  Joonho Lee,  Yuezhi Mao,  
 N. Mardirossian,  P. Pokhilko,  A. White,  M. Wormit,  M. P. Coons,  
 A. L. Dempwolff,  Zhengting Gan,  D. Hait,  P. R. Horn,  L. D. Jacobson,  
 I. Kaliman,  J. Kussmann,  A. W. Lange,  Ka Un Lao,  D. S. Levine,  Jie Liu,  
 S. C. McKenzie,  A. F. Morrison,  K. Nanda,  F. Plasser,  D. R. Rehn,  
 M. L. Vidal,  Zhi-Qiang You,  Ying Zhu,  B. Alam,  B. Albrecht,  
 A. Aldossary,  E. Alguire,  J. H. Andersen,  D. Barton,  K. Begam,  A. Behn,  
 Y. A. Bernard,  E. J. Berquist,  H. Burton,  A. Carreras,  K. Carter-Fenk,  
 R. Chakraborty,  A. D. Chien,  K. D. Closser,  V. Cofer-Shabica,  
 S. Dasgupta,  Jia Deng,  M. de Wergifosse,  M. Diedenhofen,  Hainam Do,  
 S. Ehlert,  Po-Tung Fang,  S. Fatehi,  Qingguo Feng,  J. Gayvert,  
 Qinghui Ge,  G. Gidofalvi,  M. Goldey,  J. Gomes,  C. Gonzalez-Espinoza,  
 S. Gulania,  A. Gunina,  M. W. D. Hanson-Heine,  P. H. P. Harbach,  
 A. W. Hauser,  M. F. Herbst,  M. Hernandez Vera,  M. Hodecker,  
 Z. C. Holden,  S. Houck,  Xunkun Huang,  Kerwin Hui,  B. C. Huynh,  
 M. Ivanov,  Hyunjun Ji,  Hanjie Jiang,  B. Kaduk,  S. Kaehler,  
 K. Khistyaev,  Jaehoon Kim,  P. Klunzinger,  Z. Koczor-Benda,  
 Joong Hoon Koh,  D. Kosenkov,  L. Koulias,  T. Kowalczyk,  C. M. Krauter,  
 K. Kue,  A. Kunitsa,  T. Kus,  A. Landau,  K. V. Lawler,  D. Lefrancois,  
 S. Lehtola,  Rain Li,  Yi-Pei Li,  Jiashu Liang,  M. Liebenthal,  
 Hung-Hsuan Lin,  You-Sheng Lin,  Fenglai Liu,  Kuan-Yu Liu,  
 M. Loipersberger,  A. Luenser,  A. Manjanath,  P. Manohar,  E. Mansoor,  
 S. F. Manzer,  Shan-Ping Mao,  A. V. Marenich,  T. Markovich,  S. Mason,  
 S. A. Maurer,  P. F. McLaughlin,  M. F. S. J. Menger,  J.-M. Mewes,  
 S. A. Mewes,  P. Morgante,  J. W. Mullinax,  T. S. Nguyen-Beck,  
 K. J. Oosterbaan,  G. Paran,  Alexander C. Paul,  Suranjan K. Paul,  
 F. Pavosevic,  Zheng Pei,  S. Prager,  E. I. Proynov,  E. Ramos,  B. Rana,  
 A. E. Rask,  A. Rettig,  R. M. Richard,  F. Rob,  E. Rossomme,  T. Scheele,  
 M. Scheurer,  M. Schneider,  N. Sergueev,  S. M. Sharada,  W. Skomorowski,  
 D. W. Small,  C. J. Stein,  Yu-Chuan Su,  E. J. Sundstrom,  Zhen Tao,  
 J. Thirman,  T. Tsuchimochi,  N. M. Tubman,  S. P. Veccham,  O. Vydrov,  
 J. Wenzel,  J. Witte,  A. Yamada,  Kun Yao,  S. Yeganeh,  S. R. Yost,  
 A. Zech,  Igor Ying Zhang,  Xing Zhang,  Yu Zhang,  D. Zuev,  
 A. Aspuru-Guzik,  A. T. Bell,  N. A. Besley,  K. B. Bravaya,  B. R. Brooks,  
 D. Casanova,  Jeng-Da Chai,  S. Coriani,  C. J. Cramer,  
 A. E. DePrince, III,  R. A. DiStasio Jr.,  A. Dreuw,  B. D. Dunietz,  
 T. R. Furlani,  W. A. Goddard III,  S. Grimme,  S. Hammes-Schiffer,  
 T. Head-Gordon,  W. J. Hehre,  Chao-Ping Hsu,  T.-C. Jagau,  Yousung Jung,  
 A. Klamt,  Jing Kong,  D. S. Lambrecht,  WanZhen Liang,  N. J. Mayhall,  
 C. W. McCurdy,  J. B. Neaton,  C. Ochsenfeld,  J. A. Parkhill,  R. Peverati,  
 V. A. Rassolov,  Yihan Shao,  L. V. Slipchenko,  T. Stauch,  R. P. Steele,  
 J. E. Subotnik,  A. J. W. Thom,  A. Tkatchenko,  D. G. Truhlar,  
 T. Van Voorhis,  T. A. Wesolowski,  K. B. Whaley,  H. L. Woodcock III,  
 P. M. Zimmerman,  S. Faraji,  P. M. W. Gill,  M. Head-Gordon,  
 J. M. Herbert,  A. I. Krylov

 Contributors to earlier versions of Q-Chem not listed above: 
 R. D. Adamson,  B. Austin,  R. Baer,  J. Baker,  G. J. O. Beran,  
 K. Brandhorst,  S. T. Brown,  E. F. C. Byrd,  A. K. Chakraborty,  
 G. K. L. Chan,  Chun-Min Chang,  Yunqing Chen,  C.-L. Cheng,  
 Siu Hung Chien,  D. M. Chipman,  D. L. Crittenden,  H. Dachsel,  
 R. J. Doerksen,  A. D. Dutoi,  R. G. Edgar,  J. Fosso-Tande,  
 L. Fusti-Molnar,  D. Ghosh,  A. Ghysels,  A. Golubeva-Zadorozhnaya,  
 J. Gonthier,  M. S. Gordon,  S. R. Gwaltney,  G. Hawkins,  J. E. Herr,  
 A. Heyden,  S. Hirata,  E. G. Hohenstein,  G. Kedziora,  F. J. Keil,  
 C. Kelley,  Jihan Kim,  R. A. King,  R. Z. Khaliullin,  P. P. Korambath,  
 W. Kurlancheek,  A. Laurent,  A. M. Lee,  M. S. Lee,  S. V. Levchenko,  
 Ching Yeh Lin,  D. Liotard,  E. Livshits,  R. C. Lochan,  I. Lotan,  
 L. A. Martinez-Martinez,  P. E. Maslen,  N. Nair,  D. P. O'Neill,  
 D. Neuhauser,  E. Neuscamman,  C. M. Oana,  R. Olivares-Amaya,  R. Olson,  
 T. M. Perrine,  B. Peters,  P. A. Pieniazek,  A. Prociuk,  Y. M. Rhee,  
 J. Ritchie,  M. A. Rohrdanz,  E. Rosta,  N. J. Russ,  H. F. Schaefer III,  
 M. W. Schmidt,  N. E. Schultz,  S. Sharma,  N. Shenvi,  C. D. Sherrill,  
 A. C. Simmonett,  A. Sodt,  T. Stein,  D. Stuck,  K. S. Thanthiriwatte,  
 V. Vanovschi,  L. Vogt,  Tao Wang,  A. Warshel,  M. A. Watson,  
 C. F. Williams,  Q. Wu,  X. Xu,  Jun Yang,  W. Zhang,  Yan Zhao

 Please cite Q-Chem as follows:
 Y. Shao et al., Mol. Phys. 113, 184-215 (2015)
 DOI: 10.1080/00268976.2014.952696

 Q-Chem 5.4.0 for Intel X86 EM64T Linux

 Parts of Q-Chem use Armadillo 9.800.1 (Horizon Scraper).
 http://arma.sourceforge.net/

 Q-Chem begins on Sun Jul 10 09:11:23 2022  

 Host: 
0

     Scratch files written to ./qchem2424311//
 May1621 |scratch|qcdevops|jenkins|workspace|build_RNUM    
 Processing $rem in /cm/shared/apps/spack/cpu/opt/spack/linux-centos8-zen2/gcc-10.2.0/qchem-5.4-akfmr7b3t57bfs6qan3padb2wnb2i7cl/config/preferences:
 Processing $rem in /home/theleonzhang/.qchemrc:
 Symmetry turned off for PCM/SM12/SMD calculation
 Core orbitals will be frozen

 Checking the input file for inconsistencies... 	...done.

--------------------------------------------------------------
User input:
--------------------------------------------------------------
$molecule
0 1
C	-0.003576	-0.576312	0.011685
C	-0.003576	0.287288	1.111085
C	-0.003476	1.671188	0.788385
H	-0.003576	-0.081512	2.147785
C	-0.003476	1.891888	-0.600815
S	-0.003576	0.366088	-1.475115
C	-0.003476	2.758988	1.826285
H	-0.003476	2.333288	2.848385
H	-0.895876	3.413288	1.737885
H	0.888924	3.413188	1.737885
C	-0.003576	-2.017012	0.011685
H	0.690524	-2.016712	0.839085
H	-0.631176	-2.720812	0.538185
H	0.721924	-2.535912	-0.597115
H	-0.003476	2.841088	-1.149915
$end

$rem
JOBTYPE		SP
EXCHANGE	HF
CORRELATION	pRIMP2
BASIS		cc-pvtz
METHOD		rimp2
AUX_BASIS	rimp2-cc-pvtz
SOLVENT_METHOD	PCM
PURECART	11111
SYMMETRY	false
MEM_TOTAL	110000
SCF_CONVERGENCE = 6
THRESH=10
$end



$solvent
dielectric 4.90
$end
--------------------------------------------------------------
 ----------------------------------------------------------------
             Standard Nuclear Orientation (Angstroms)
    I     Atom           X                Y                Z
 ----------------------------------------------------------------
    1      C      -0.0035760000    -0.5763120000     0.0116850000
    2      C      -0.0035760000     0.2872880000     1.1110850000
    3      C      -0.0034760000     1.6711880000     0.7883850000
    4      H      -0.0035760000    -0.0815120000     2.1477850000
    5      C      -0.0034760000     1.8918880000    -0.6008150000
    6      S      -0.0035760000     0.3660880000    -1.4751150000
    7      C      -0.0034760000     2.7589880000     1.8262850000
    8      H      -0.0034760000     2.3332880000     2.8483850000
    9      H      -0.8958760000     3.4132880000     1.7378850000
   10      H       0.8889240000     3.4131880000     1.7378850000
   11      C      -0.0035760000    -2.0170120000     0.0116850000
   12      H       0.6905240000    -2.0167120000     0.8390850000
   13      H      -0.6311760000    -2.7208120000     0.5381850000
   14      H       0.7219240000    -2.5359120000    -0.5971150000
   15      H      -0.0034760000     2.8410880000    -1.1499150000
 ----------------------------------------------------------------
 Nuclear Repulsion Energy =         344.28661683 hartrees
 There are       30 alpha and       30 beta electrons

 Q-Chem warning in module forms1/BasisType.C, line 2236:

 You are not using the predefined 5D/6D in this basis set.

 Requested basis set is cc-pVTZ
 There are 120 shells and 326 basis functions

 Total QAlloc Memory Limit 110000 MB
 Mega-Array Size       188 MB
 MEM_STATIC part       192 MB
 Discretize the solute cavity surface with Lebedev spheres
	Using 110 Lebedev grid points for each H atom
	Using 194 Lebedev grid points for other atoms
	Atomic van der Waals radii will be scaled by 1.20
 Remove points where switching function is < 1.0e-08
 Keep 1063 surface tesserae and discard 1175 interior tesserae
 Molecular Surface Area = 159.614 Angst**2

                       Distance Matrix (Angstroms)
             C (  1)   C (  2)   C (  3)   H (  4)   C (  5)   S (  6)
   C (  2)  1.398029
   C (  3)  2.377923  1.421026
   H (  4)  2.192658  1.100346  2.218091
   C (  5)  2.543063  2.346347  1.406622  3.383653
   S (  6)  1.760310  2.587400  2.612799  3.650445  1.758541
   C (  7)  3.796972  2.573094  1.503511  2.858636  2.577339  4.077403
   H (  8)  4.063575  2.684088  2.163788  2.514379  3.477329  4.750003
   H (  9)  4.437665  3.310733  2.175509  3.630130  2.929258  4.517189
   H ( 10)  4.437616  3.310693  2.175429  3.630083  2.929206  4.517161
   C ( 11)  1.440700  2.553131  3.769096  2.882548  3.956596  2.808868
   H ( 12)  1.800310  2.421606  3.752974  2.437103  4.222807  3.393381
   H ( 13)  2.295640  3.125822  4.443678  3.154457  4.792529  3.738477
   H ( 14)  2.176470  3.378573  4.488375  3.752986  4.486829  3.117505
   H ( 15)  3.609423  3.410867  2.263995  4.406406  1.096582  2.496273
             C (  7)   H (  8)   H (  9)   H ( 10)   C ( 11)   H ( 12)
   H (  8)  1.107208
   H (  9)  1.110090  1.787733
   H ( 10)  1.110032  1.787672  1.784800
   C ( 11)  5.109105  5.193455  5.767506  5.767443
   H ( 12)  4.925800  4.841634  5.727950  5.507360  1.079984
   H ( 13)  5.664046  5.592402  6.255920  6.432413  1.080009  1.527478
   H ( 14)  5.868138  6.008892  6.592608  6.393114  1.079928  1.527490
   H ( 15)  2.977332  4.030417  3.076228  3.076210  4.995043  5.294901
             H ( 13)   H ( 14)
   H ( 14)  1.775943
   H ( 15)  5.846231  5.453799
 
 Requested basis set is rimp2-cc-pVTZ
 There are 250 shells and 848 basis functions
 A cutoff of  1.0D-10 yielded   6185 shell pairs
 There are     45263 function pairs (     58213 Cartesian)
 Smallest overlap matrix eigenvalue = 9.17E-05

 Scale SEOQF with 1.000000e+00/1.000000e-01/1.000000e-01

 Standard Electronic Orientation quadrupole field applied
 Nucleus-field energy     =     0.0000000034 hartrees
 Guess from superposition of atomic densities
 Warning:  Energy on first SCF cycle will be non-variational
 SAD guess density has 60.000000 electrons

 -----------------------------------------------------------------------
  General SCF calculation program by
  Eric Jon Sundstrom, Paul Horn, Yuezhi Mao, Dmitri Zuev, Alec White,
  David Stuck, Shaama M.S., Shane Yost, Joonho Lee, David Small,
  Daniel Levine, Susi Lehtola, Hugh Burton, Evgeny Epifanovsky,
  Bang C. Huynh
 -----------------------------------------------------------------------
 Hartree-Fock
 A restricted SCF calculation will be
 performed using DIIS
 SCF converges when DIIS error is below 1.0e-06
 ---------------------------------------
  Cycle       Energy         DIIS error
 ---------------------------------------
    1    -632.1009446840      2.92e-02  
    2    -629.3449407490      1.92e-03  
    3    -629.4146693443      6.61e-04  
    4    -629.4218489735      3.42e-04  
    5    -629.4238697044      6.18e-05  
    6    -629.4239966576      2.49e-05  
    7    -629.4240269818      1.11e-05  
    8    -629.4240356381      4.98e-06  
    9    -629.4240370848      1.66e-06  
   10    -629.4240372560      5.57e-07  Convergence criterion met
 ---------------------------------------
 SCF time:   CPU 143.66s  wall 144.00s 

************** Final PCM Free Energy Summary **************
 G_electrostatic  =      -0.00557998 hartree =      -3.50148781 kcal/mol
 G_cavitation     =       0.00000000 hartree =       0.00000000 kcal/mol
 G_dispersion     =       0.00000000 hartree =       0.00000000 kcal/mol
 G_repulsion      =       0.00000000 hartree =       0.00000000 kcal/mol
 --------------------------------------------------
 Non-electrostatic Free Energy =       0.00000000 hartree =       0.00000000 kcal/mol
 Total                         =      -0.00557998 hartree =      -3.50148781 kcal/mol
 --------------------------------------------------
 SCF Energy (H0 + V/2)                       =    -629.42403726 
 Solute Internal Energy (H0)                 =    -629.41845728 
 Total Free Energy (H0 + V/2 + non-elec)     =    -629.42403726 hartree
                                             = -394969.54465322 kcal/mol
***********************************************************

 SCF   energy in the final basis set =     -629.4240372560
 Total energy in the final basis set =     -629.4240372560


 --------------------------------------------------------------
  Generalized many-body perturbation theory program
  by Joonho Lee, Fazle Rob, Xintian Feng, Evgeny Epifanovsky

 No regularization used 
 (reg. param. = 0.0000e+00)
  (P|Q)^-1/2 Time:  CPU 0.48 s  wall 0.48 s

 In RI-MP2 calculation: 
 # of frozen core orbitals: 11

 Components of the RIMP2 correlation energy:
        aaaa    correlation energy =        -0.1455319097 a.u.
        abab    correlation energy =        -0.8861915295 a.u.
        bbbb    correlation energy =        -0.1455319097 a.u.
        non-Brillouin singles      =        -0.0000000000 a.u.
        total same-spin energy     =        -0.2910638194 a.u.
        total opposite-spin energy =        -0.8861915295 a.u.

 Total  RIMP2   correlation energy =        -1.1772553489 a.u.
        RIMP2         total energy =      -630.6012926049 a.u.

 RI-MP2 Energy Time:  CPU 11.02 s  wall 11.06 s
 
 --------------------------------------------------------------
 
                    Orbital Energies (a.u.)
 --------------------------------------------------------------
 
 Alpha MOs
 -- Occupied --
-91.9771 -11.2808 -11.2532 -11.2472 -11.2290 -11.2270 -11.2181  -8.9769
 -6.6579  -6.6573  -6.6568  -1.1604  -1.0546  -0.9989  -0.9403  -0.8838
 -0.7424  -0.7218  -0.6495  -0.5895  -0.5750  -0.5658  -0.5602  -0.5431
 -0.5091  -0.4885  -0.4668  -0.4466  -0.3373  -0.2968
 -- Virtual --
  0.1077   0.1449   0.1493   0.1759   0.1812   0.1899   0.2090   0.2235
  0.2347   0.2427   0.2514   0.2672   0.2966   0.3205   0.3442   0.3533
  0.3837   0.3918   0.4078   0.4158   0.4343   0.4535   0.4707   0.4935
  0.4976   0.5041   0.5185   0.5368   0.5396   0.5538   0.5624   0.5975
  0.5977   0.6075   0.6146   0.6214   0.6395   0.6412   0.6452   0.6533
  0.6556   0.6630   0.6812   0.7077   0.7360   0.7491   0.7651   0.7847
  0.8075   0.8322   0.8414   0.8481   0.8692   0.8964   0.9268   0.9371
  0.9462   0.9567   0.9852   1.0132   1.0301   1.0583   1.0629   1.0734
  1.0795   1.0882   1.1043   1.1535   1.1585   1.1842   1.1945   1.2068
  1.2248   1.2355   1.2558   1.2567   1.2696   1.2763   1.3206   1.3412
  1.3529   1.3843   1.3923   1.4033   1.4231   1.4413   1.4571   1.4822
  1.4969   1.5166   1.5354   1.5370   1.5496   1.5615   1.5705   1.5926
  1.6013   1.6252   1.6630   1.6830   1.6935   1.7000   1.7156   1.7439
  1.7513   1.7936   1.8061   1.8255   1.8847   1.9068   1.9308   1.9377
  1.9996   2.0429   2.0932   2.1455   2.1839   2.2012   2.2218   2.2428
  2.2671   2.2977   2.3686   2.4141   2.4623   2.4938   2.5258   2.5574
  2.5753   2.6034   2.6453   2.6563   2.6859   2.6932   2.7111   2.7307
  2.7476   2.7618   2.7656   2.7826   2.8160   2.8483   2.8650   2.8901
  2.9019   2.9214   2.9394   2.9662   2.9730   3.0031   3.0364   3.0439
  3.0815   3.1136   3.1138   3.1367   3.1513   3.1574   3.1794   3.1885
  3.2319   3.2413   3.2547   3.2800   3.2993   3.3096   3.3167   3.3302
  3.3352   3.3664   3.3818   3.3976   3.4130   3.4181   3.4338   3.4395
  3.4537   3.4675   3.4799   3.4938   3.5114   3.5290   3.5320   3.5774
  3.5819   3.5895   3.5972   3.6175   3.6252   3.6365   3.6672   3.6776
  3.6860   3.6980   3.7295   3.7461   3.7767   3.7820   3.7950   3.8025
  3.8101   3.8291   3.8545   3.8722   3.8897   3.9142   3.9319   3.9601
  3.9781   3.9923   4.0071   4.0293   4.0534   4.0642   4.0987   4.1034
  4.1277   4.1319   4.1601   4.1659   4.2175   4.2208   4.2280   4.2472
  4.2882   4.2885   4.3108   4.3298   4.3403   4.3762   4.3931   4.4016
  4.4059   4.4210   4.4409   4.4599   4.4699   4.5265   4.5603   4.5912
  4.5932   4.6225   4.6301   4.6734   4.7207   4.7414   4.7697   4.7949
  4.8088   4.8293   4.8647   4.8931   4.9295   4.9542   5.0798   5.0995
  5.1097   5.1395   5.1824   5.1974   5.2366   5.2628   5.2823   5.3228
  5.3686   5.4067   5.4167   5.4436   5.4752   5.5004   5.5564   5.5638
  5.5899   5.6253   5.6426   5.6795   5.6988   5.8236   5.8445   5.8731
  5.9027   6.0475   6.0862   6.1262   6.2273   6.2558   6.3035   6.3701
  6.4772   6.5439   9.1945  11.4226  12.9533  13.8924  14.1757  14.5056
 --------------------------------------------------------------
 
          Ground-State Mulliken Net Atomic Charges

     Atom                 Charge (a.u.)
  ----------------------------------------
      1 C                     0.067730
      2 C                    -0.278698
      3 C                     0.035419
      4 H                     0.177041
      5 C                    -0.263141
      6 S                    -0.005243
      7 C                    -0.274845
      8 H                     0.101197
      9 H                     0.107295
     10 H                     0.107128
     11 C                    -0.382134
     12 H                     0.131419
     13 H                     0.147551
     14 H                     0.136545
     15 H                     0.192737
  ----------------------------------------
  Sum of atomic charges =     0.000000

 -----------------------------------------------------------------
                    Cartesian Multipole Moments
 -----------------------------------------------------------------
    Charge (ESU x 10^10)
                -0.0000
    Dipole Moment (Debye)
         X       0.4570      Y      -0.3445      Z       1.9675
       Tot       2.0491
    Quadrupole Moments (Debye-Ang)
        XX     -53.9811     XY      -0.9504     YY     -42.0881
        XZ      -0.2945     YZ      -0.8672     ZZ     -48.7434
    Octopole Moments (Debye-Ang^2)
       XXX      -0.4862    XXY     -32.2426    XYY       1.2818
       YYY     -80.2631    XXZ      -2.0886    XYZ       1.1476
       YYZ      -1.8090    XZZ      -0.1694    YZZ     -24.8222
       ZZZ       0.6567
    Hexadecapole Moments (Debye-Ang^3)
      XXXX     -78.7697   XXXY       2.1579   XXYY    -159.8941
      XYYY      -0.2473   YYYY    -813.1978   XXXZ       0.1371
      XXYZ     -29.2528   XYYZ      -3.7084   YYYZ    -108.5908
      XXZZ    -101.2484   XYZZ       0.6637   YYZZ    -214.7380
      XZZZ       0.5434   YZZZ     -98.5441   ZZZZ    -483.9177
 -----------------------------------------------------------------
 Total job time:  156.69s(wall), 155.03s(cpu) 
 Sun Jul 10 09:14:00 2022

        *************************************************************
        *                                                           *
        *  Thank you very much for using Q-Chem.  Have a nice day.  *
        *                                                           *
        *************************************************************


remove work dirs ./qchem2424311.0 -- ./qchem2424311.-1
rm -rf ./qchem2424311
You are running Q-Chem version: 5.4.0

#
# job setting
#
local host:  exp-1-33
current dir: /expanse/lustre/scratch/theleonzhang/temp_project/Hydrogenated_Impropers_Test
input file:  Methylthiophene_Phi_0_Theta_230_Methylthiophene_Hydrogenated_Improper.qcin
output file: 
nprocs     : 0
nthreads   : 1
#
# qchem installation setting
#
QC:          /cm/shared/apps/spack/cpu/opt/spack/linux-centos8-zen2/gcc-10.2.0/qchem-5.4-akfmr7b3t57bfs6qan3padb2wnb2i7cl
QCAUX:       /cm/shared/apps/spack/cpu/opt/spack/linux-centos8-zen2/gcc-10.2.0/qchem-5.4-akfmr7b3t57bfs6qan3padb2wnb2i7cl/qcaux
QCPROG:      /cm/shared/apps/spack/cpu/opt/spack/linux-centos8-zen2/gcc-10.2.0/qchem-5.4-akfmr7b3t57bfs6qan3padb2wnb2i7cl/exe/qcprog.exe_s
QCPROG_S:    /cm/shared/apps/spack/cpu/opt/spack/linux-centos8-zen2/gcc-10.2.0/qchem-5.4-akfmr7b3t57bfs6qan3padb2wnb2i7cl/exe/qcprog.exe_s
PARALLEL:    -DSERIAL
QCMPI:       mpich
#
# qchem directory setting
#
qcrun:       qchem2105098
QCSCRATCH:   .
QCLOCALSCR:  
QCTMPDIR:    .
QCFILEPREF:  ./qchem2105098
QCSAVEDIR:   
workdirs:    ./qchem2105098
workdir0:    ./qchem2105098
partmpdirs =  
#
# parallel setting
#
QCRSH:           ssh
QCMPI:           mpich
QCMPIRUN:        /cm/shared/apps/spack/cpu/opt/spack/linux-centos8-zen2/gcc-10.2.0/qchem-5.4-akfmr7b3t57bfs6qan3padb2wnb2i7cl/bin/mpi/mpirun_qchem
QCMACHINEFILE:   ./qchem2105098/hostfile

#
# env setting
#
exported envs:   QC QCAUX QCSCRATCH QCRUNNAME QCFILEPREF QCPROG QCPROG_S GUIFILE

Running Job 1 of 1 Methylthiophene_Phi_0_Theta_230_Methylthiophene_Hydrogenated_Improper.qcin
qchem Methylthiophene_Phi_0_Theta_230_Methylthiophene_Hydrogenated_Improper.qcin_2105098.0 ./qchem2105098/ 0
/cm/shared/apps/spack/cpu/opt/spack/linux-centos8-zen2/gcc-10.2.0/qchem-5.4-akfmr7b3t57bfs6qan3padb2wnb2i7cl/exe/qcprog.exe_s Methylthiophene_Phi_0_Theta_230_Methylthiophene_Hydrogenated_Improper.qcin_2105098.0 ./qchem2105098/
                  Welcome to Q-Chem
     A Quantum Leap Into The Future Of Chemistry


 Q-Chem 5.4, Q-Chem, Inc., Pleasanton, CA (2021)

 License issued to: University of California, San Diego (site)

 E. Epifanovsky,  A. T. B. Gilbert,  Xintian Feng,  Joonho Lee,  Yuezhi Mao,  
 N. Mardirossian,  P. Pokhilko,  A. White,  M. Wormit,  M. P. Coons,  
 A. L. Dempwolff,  Zhengting Gan,  D. Hait,  P. R. Horn,  L. D. Jacobson,  
 I. Kaliman,  J. Kussmann,  A. W. Lange,  Ka Un Lao,  D. S. Levine,  Jie Liu,  
 S. C. McKenzie,  A. F. Morrison,  K. Nanda,  F. Plasser,  D. R. Rehn,  
 M. L. Vidal,  Zhi-Qiang You,  Ying Zhu,  B. Alam,  B. Albrecht,  
 A. Aldossary,  E. Alguire,  J. H. Andersen,  D. Barton,  K. Begam,  A. Behn,  
 Y. A. Bernard,  E. J. Berquist,  H. Burton,  A. Carreras,  K. Carter-Fenk,  
 R. Chakraborty,  A. D. Chien,  K. D. Closser,  V. Cofer-Shabica,  
 S. Dasgupta,  Jia Deng,  M. de Wergifosse,  M. Diedenhofen,  Hainam Do,  
 S. Ehlert,  Po-Tung Fang,  S. Fatehi,  Qingguo Feng,  J. Gayvert,  
 Qinghui Ge,  G. Gidofalvi,  M. Goldey,  J. Gomes,  C. Gonzalez-Espinoza,  
 S. Gulania,  A. Gunina,  M. W. D. Hanson-Heine,  P. H. P. Harbach,  
 A. W. Hauser,  M. F. Herbst,  M. Hernandez Vera,  M. Hodecker,  
 Z. C. Holden,  S. Houck,  Xunkun Huang,  Kerwin Hui,  B. C. Huynh,  
 M. Ivanov,  Hyunjun Ji,  Hanjie Jiang,  B. Kaduk,  S. Kaehler,  
 K. Khistyaev,  Jaehoon Kim,  P. Klunzinger,  Z. Koczor-Benda,  
 Joong Hoon Koh,  D. Kosenkov,  L. Koulias,  T. Kowalczyk,  C. M. Krauter,  
 K. Kue,  A. Kunitsa,  T. Kus,  A. Landau,  K. V. Lawler,  D. Lefrancois,  
 S. Lehtola,  Rain Li,  Yi-Pei Li,  Jiashu Liang,  M. Liebenthal,  
 Hung-Hsuan Lin,  You-Sheng Lin,  Fenglai Liu,  Kuan-Yu Liu,  
 M. Loipersberger,  A. Luenser,  A. Manjanath,  P. Manohar,  E. Mansoor,  
 S. F. Manzer,  Shan-Ping Mao,  A. V. Marenich,  T. Markovich,  S. Mason,  
 S. A. Maurer,  P. F. McLaughlin,  M. F. S. J. Menger,  J.-M. Mewes,  
 S. A. Mewes,  P. Morgante,  J. W. Mullinax,  T. S. Nguyen-Beck,  
 K. J. Oosterbaan,  G. Paran,  Alexander C. Paul,  Suranjan K. Paul,  
 F. Pavosevic,  Zheng Pei,  S. Prager,  E. I. Proynov,  E. Ramos,  B. Rana,  
 A. E. Rask,  A. Rettig,  R. M. Richard,  F. Rob,  E. Rossomme,  T. Scheele,  
 M. Scheurer,  M. Schneider,  N. Sergueev,  S. M. Sharada,  W. Skomorowski,  
 D. W. Small,  C. J. Stein,  Yu-Chuan Su,  E. J. Sundstrom,  Zhen Tao,  
 J. Thirman,  T. Tsuchimochi,  N. M. Tubman,  S. P. Veccham,  O. Vydrov,  
 J. Wenzel,  J. Witte,  A. Yamada,  Kun Yao,  S. Yeganeh,  S. R. Yost,  
 A. Zech,  Igor Ying Zhang,  Xing Zhang,  Yu Zhang,  D. Zuev,  
 A. Aspuru-Guzik,  A. T. Bell,  N. A. Besley,  K. B. Bravaya,  B. R. Brooks,  
 D. Casanova,  Jeng-Da Chai,  S. Coriani,  C. J. Cramer,  
 A. E. DePrince, III,  R. A. DiStasio Jr.,  A. Dreuw,  B. D. Dunietz,  
 T. R. Furlani,  W. A. Goddard III,  S. Grimme,  S. Hammes-Schiffer,  
 T. Head-Gordon,  W. J. Hehre,  Chao-Ping Hsu,  T.-C. Jagau,  Yousung Jung,  
 A. Klamt,  Jing Kong,  D. S. Lambrecht,  WanZhen Liang,  N. J. Mayhall,  
 C. W. McCurdy,  J. B. Neaton,  C. Ochsenfeld,  J. A. Parkhill,  R. Peverati,  
 V. A. Rassolov,  Yihan Shao,  L. V. Slipchenko,  T. Stauch,  R. P. Steele,  
 J. E. Subotnik,  A. J. W. Thom,  A. Tkatchenko,  D. G. Truhlar,  
 T. Van Voorhis,  T. A. Wesolowski,  K. B. Whaley,  H. L. Woodcock III,  
 P. M. Zimmerman,  S. Faraji,  P. M. W. Gill,  M. Head-Gordon,  
 J. M. Herbert,  A. I. Krylov

 Contributors to earlier versions of Q-Chem not listed above: 
 R. D. Adamson,  B. Austin,  R. Baer,  J. Baker,  G. J. O. Beran,  
 K. Brandhorst,  S. T. Brown,  E. F. C. Byrd,  A. K. Chakraborty,  
 G. K. L. Chan,  Chun-Min Chang,  Yunqing Chen,  C.-L. Cheng,  
 Siu Hung Chien,  D. M. Chipman,  D. L. Crittenden,  H. Dachsel,  
 R. J. Doerksen,  A. D. Dutoi,  R. G. Edgar,  J. Fosso-Tande,  
 L. Fusti-Molnar,  D. Ghosh,  A. Ghysels,  A. Golubeva-Zadorozhnaya,  
 J. Gonthier,  M. S. Gordon,  S. R. Gwaltney,  G. Hawkins,  J. E. Herr,  
 A. Heyden,  S. Hirata,  E. G. Hohenstein,  G. Kedziora,  F. J. Keil,  
 C. Kelley,  Jihan Kim,  R. A. King,  R. Z. Khaliullin,  P. P. Korambath,  
 W. Kurlancheek,  A. Laurent,  A. M. Lee,  M. S. Lee,  S. V. Levchenko,  
 Ching Yeh Lin,  D. Liotard,  E. Livshits,  R. C. Lochan,  I. Lotan,  
 L. A. Martinez-Martinez,  P. E. Maslen,  N. Nair,  D. P. O'Neill,  
 D. Neuhauser,  E. Neuscamman,  C. M. Oana,  R. Olivares-Amaya,  R. Olson,  
 T. M. Perrine,  B. Peters,  P. A. Pieniazek,  A. Prociuk,  Y. M. Rhee,  
 J. Ritchie,  M. A. Rohrdanz,  E. Rosta,  N. J. Russ,  H. F. Schaefer III,  
 M. W. Schmidt,  N. E. Schultz,  S. Sharma,  N. Shenvi,  C. D. Sherrill,  
 A. C. Simmonett,  A. Sodt,  T. Stein,  D. Stuck,  K. S. Thanthiriwatte,  
 V. Vanovschi,  L. Vogt,  Tao Wang,  A. Warshel,  M. A. Watson,  
 C. F. Williams,  Q. Wu,  X. Xu,  Jun Yang,  W. Zhang,  Yan Zhao

 Please cite Q-Chem as follows:
 Y. Shao et al., Mol. Phys. 113, 184-215 (2015)
 DOI: 10.1080/00268976.2014.952696

 Q-Chem 5.4.0 for Intel X86 EM64T Linux

 Parts of Q-Chem use Armadillo 9.800.1 (Horizon Scraper).
 http://arma.sourceforge.net/

 Q-Chem begins on Sun Jul 10 09:42:23 2022  

 Host: 
0

     Scratch files written to ./qchem2105098//
 May1621 |scratch|qcdevops|jenkins|workspace|build_RNUM    
 Processing $rem in /cm/shared/apps/spack/cpu/opt/spack/linux-centos8-zen2/gcc-10.2.0/qchem-5.4-akfmr7b3t57bfs6qan3padb2wnb2i7cl/config/preferences:
 Processing $rem in /home/theleonzhang/.qchemrc:
 Symmetry turned off for PCM/SM12/SMD calculation
 Core orbitals will be frozen

 Checking the input file for inconsistencies... 	...done.

--------------------------------------------------------------
User input:
--------------------------------------------------------------
$molecule
0 1
C	-0.003576	-0.576312	0.011685
C	-0.003576	0.287288	1.111085
C	-0.003476	1.671188	0.788385
H	-0.003576	-0.081512	2.147785
C	-0.003476	1.891888	-0.600815
S	-0.003576	0.366088	-1.475115
C	-0.003476	2.758988	1.826285
H	-0.003476	2.333288	2.848385
H	-0.895876	3.413288	1.737885
H	0.888924	3.413188	1.737885
C	-0.003576	-2.017012	0.011685
H	0.690524	-2.016712	0.839085
H	-0.631176	-2.720812	0.538185
H	0.721924	-2.535912	-0.597115
H	-0.003476	2.841088	-1.149915
$end

$rem
JOBTYPE		SP
EXCHANGE	HF
CORRELATION	pRIMP2
BASIS		cc-pvtz
METHOD		rimp2
AUX_BASIS	rimp2-cc-pvtz
SOLVENT_METHOD	PCM
PURECART	11111
SYMMETRY	false
MEM_TOTAL	110000
SCF_CONVERGENCE = 6
THRESH=10
$end



$solvent
dielectric 4.90
$end
--------------------------------------------------------------
 ----------------------------------------------------------------
             Standard Nuclear Orientation (Angstroms)
    I     Atom           X                Y                Z
 ----------------------------------------------------------------
    1      C      -0.0035760000    -0.5763120000     0.0116850000
    2      C      -0.0035760000     0.2872880000     1.1110850000
    3      C      -0.0034760000     1.6711880000     0.7883850000
    4      H      -0.0035760000    -0.0815120000     2.1477850000
    5      C      -0.0034760000     1.8918880000    -0.6008150000
    6      S      -0.0035760000     0.3660880000    -1.4751150000
    7      C      -0.0034760000     2.7589880000     1.8262850000
    8      H      -0.0034760000     2.3332880000     2.8483850000
    9      H      -0.8958760000     3.4132880000     1.7378850000
   10      H       0.8889240000     3.4131880000     1.7378850000
   11      C      -0.0035760000    -2.0170120000     0.0116850000
   12      H       0.6905240000    -2.0167120000     0.8390850000
   13      H      -0.6311760000    -2.7208120000     0.5381850000
   14      H       0.7219240000    -2.5359120000    -0.5971150000
   15      H      -0.0034760000     2.8410880000    -1.1499150000
 ----------------------------------------------------------------
 Nuclear Repulsion Energy =         344.28661683 hartrees
 There are       30 alpha and       30 beta electrons

 Q-Chem warning in module forms1/BasisType.C, line 2236:

 You are not using the predefined 5D/6D in this basis set.

 Requested basis set is cc-pVTZ
 There are 120 shells and 326 basis functions

 Total QAlloc Memory Limit 110000 MB
 Mega-Array Size       188 MB
 MEM_STATIC part       192 MB
 Discretize the solute cavity surface with Lebedev spheres
	Using 110 Lebedev grid points for each H atom
	Using 194 Lebedev grid points for other atoms
	Atomic van der Waals radii will be scaled by 1.20
 Remove points where switching function is < 1.0e-08
 Keep 1063 surface tesserae and discard 1175 interior tesserae
 Molecular Surface Area = 159.614 Angst**2

                       Distance Matrix (Angstroms)
             C (  1)   C (  2)   C (  3)   H (  4)   C (  5)   S (  6)
   C (  2)  1.398029
   C (  3)  2.377923  1.421026
   H (  4)  2.192658  1.100346  2.218091
   C (  5)  2.543063  2.346347  1.406622  3.383653
   S (  6)  1.760310  2.587400  2.612799  3.650445  1.758541
   C (  7)  3.796972  2.573094  1.503511  2.858636  2.577339  4.077403
   H (  8)  4.063575  2.684088  2.163788  2.514379  3.477329  4.750003
   H (  9)  4.437665  3.310733  2.175509  3.630130  2.929258  4.517189
   H ( 10)  4.437616  3.310693  2.175429  3.630083  2.929206  4.517161
   C ( 11)  1.440700  2.553131  3.769096  2.882548  3.956596  2.808868
   H ( 12)  1.800310  2.421606  3.752974  2.437103  4.222807  3.393381
   H ( 13)  2.295640  3.125822  4.443678  3.154457  4.792529  3.738477
   H ( 14)  2.176470  3.378573  4.488375  3.752986  4.486829  3.117505
   H ( 15)  3.609423  3.410867  2.263995  4.406406  1.096582  2.496273
             C (  7)   H (  8)   H (  9)   H ( 10)   C ( 11)   H ( 12)
   H (  8)  1.107208
   H (  9)  1.110090  1.787733
   H ( 10)  1.110032  1.787672  1.784800
   C ( 11)  5.109105  5.193455  5.767506  5.767443
   H ( 12)  4.925800  4.841634  5.727950  5.507360  1.079984
   H ( 13)  5.664046  5.592402  6.255920  6.432413  1.080009  1.527478
   H ( 14)  5.868138  6.008892  6.592608  6.393114  1.079928  1.527490
   H ( 15)  2.977332  4.030417  3.076228  3.076210  4.995043  5.294901
             H ( 13)   H ( 14)
   H ( 14)  1.775943
   H ( 15)  5.846231  5.453799
 
 Requested basis set is rimp2-cc-pVTZ
 There are 250 shells and 848 basis functions
 A cutoff of  1.0D-10 yielded   6185 shell pairs
 There are     45263 function pairs (     58213 Cartesian)
 Smallest overlap matrix eigenvalue = 9.17E-05

 Scale SEOQF with 1.000000e+00/1.000000e-01/1.000000e-01

 Standard Electronic Orientation quadrupole field applied
 Nucleus-field energy     =     0.0000000034 hartrees
 Guess from superposition of atomic densities
 Warning:  Energy on first SCF cycle will be non-variational
 SAD guess density has 60.000000 electrons

 -----------------------------------------------------------------------
  General SCF calculation program by
  Eric Jon Sundstrom, Paul Horn, Yuezhi Mao, Dmitri Zuev, Alec White,
  David Stuck, Shaama M.S., Shane Yost, Joonho Lee, David Small,
  Daniel Levine, Susi Lehtola, Hugh Burton, Evgeny Epifanovsky,
  Bang C. Huynh
 -----------------------------------------------------------------------
 Hartree-Fock
 A restricted SCF calculation will be
 performed using DIIS
 SCF converges when DIIS error is below 1.0e-06
 ---------------------------------------
  Cycle       Energy         DIIS error
 ---------------------------------------
    1    -632.1009446840      2.92e-02  
    2    -629.3449407490      1.92e-03  
    3    -629.4146693443      6.61e-04  
    4    -629.4218489735      3.42e-04  
    5    -629.4238697044      6.18e-05  
    6    -629.4239966576      2.49e-05  
    7    -629.4240269818      1.11e-05  
    8    -629.4240356381      4.98e-06  
    9    -629.4240370848      1.66e-06  
   10    -629.4240372560      5.57e-07  Convergence criterion met
 ---------------------------------------
 SCF time:   CPU 144.97s  wall 145.00s 

************** Final PCM Free Energy Summary **************
 G_electrostatic  =      -0.00557998 hartree =      -3.50148781 kcal/mol
 G_cavitation     =       0.00000000 hartree =       0.00000000 kcal/mol
 G_dispersion     =       0.00000000 hartree =       0.00000000 kcal/mol
 G_repulsion      =       0.00000000 hartree =       0.00000000 kcal/mol
 --------------------------------------------------
 Non-electrostatic Free Energy =       0.00000000 hartree =       0.00000000 kcal/mol
 Total                         =      -0.00557998 hartree =      -3.50148781 kcal/mol
 --------------------------------------------------
 SCF Energy (H0 + V/2)                       =    -629.42403726 
 Solute Internal Energy (H0)                 =    -629.41845728 
 Total Free Energy (H0 + V/2 + non-elec)     =    -629.42403726 hartree
                                             = -394969.54465322 kcal/mol
***********************************************************

 SCF   energy in the final basis set =     -629.4240372560
 Total energy in the final basis set =     -629.4240372560


 --------------------------------------------------------------
  Generalized many-body perturbation theory program
  by Joonho Lee, Fazle Rob, Xintian Feng, Evgeny Epifanovsky

 No regularization used 
 (reg. param. = 0.0000e+00)
  (P|Q)^-1/2 Time:  CPU 0.48 s  wall 0.49 s

 In RI-MP2 calculation: 
 # of frozen core orbitals: 11

 Components of the RIMP2 correlation energy:
        aaaa    correlation energy =        -0.1455319097 a.u.
        abab    correlation energy =        -0.8861915295 a.u.
        bbbb    correlation energy =        -0.1455319097 a.u.
        non-Brillouin singles      =        -0.0000000000 a.u.
        total same-spin energy     =        -0.2910638194 a.u.
        total opposite-spin energy =        -0.8861915295 a.u.

 Total  RIMP2   correlation energy =        -1.1772553489 a.u.
        RIMP2         total energy =      -630.6012926049 a.u.

 RI-MP2 Energy Time:  CPU 11.15 s  wall 11.20 s
 
 --------------------------------------------------------------
 
                    Orbital Energies (a.u.)
 --------------------------------------------------------------
 
 Alpha MOs
 -- Occupied --
-91.9771 -11.2808 -11.2532 -11.2472 -11.2290 -11.2270 -11.2181  -8.9769
 -6.6579  -6.6573  -6.6568  -1.1604  -1.0546  -0.9989  -0.9403  -0.8838
 -0.7424  -0.7218  -0.6495  -0.5895  -0.5750  -0.5658  -0.5602  -0.5431
 -0.5091  -0.4885  -0.4668  -0.4466  -0.3373  -0.2968
 -- Virtual --
  0.1077   0.1449   0.1493   0.1759   0.1812   0.1899   0.2090   0.2235
  0.2347   0.2427   0.2514   0.2672   0.2966   0.3205   0.3442   0.3533
  0.3837   0.3918   0.4078   0.4158   0.4343   0.4535   0.4707   0.4935
  0.4976   0.5041   0.5185   0.5368   0.5396   0.5538   0.5624   0.5975
  0.5977   0.6075   0.6146   0.6214   0.6395   0.6412   0.6452   0.6533
  0.6556   0.6630   0.6812   0.7077   0.7360   0.7491   0.7651   0.7847
  0.8075   0.8322   0.8414   0.8481   0.8692   0.8964   0.9268   0.9371
  0.9462   0.9567   0.9852   1.0132   1.0301   1.0583   1.0629   1.0734
  1.0795   1.0882   1.1043   1.1535   1.1585   1.1842   1.1945   1.2068
  1.2248   1.2355   1.2558   1.2567   1.2696   1.2763   1.3206   1.3412
  1.3529   1.3843   1.3923   1.4033   1.4231   1.4413   1.4571   1.4822
  1.4969   1.5166   1.5354   1.5370   1.5496   1.5615   1.5705   1.5926
  1.6013   1.6252   1.6630   1.6830   1.6935   1.7000   1.7156   1.7439
  1.7513   1.7936   1.8061   1.8255   1.8847   1.9068   1.9308   1.9377
  1.9996   2.0429   2.0932   2.1455   2.1839   2.2012   2.2218   2.2428
  2.2671   2.2977   2.3686   2.4141   2.4623   2.4938   2.5258   2.5574
  2.5753   2.6034   2.6453   2.6563   2.6859   2.6932   2.7111   2.7307
  2.7476   2.7618   2.7656   2.7826   2.8160   2.8483   2.8650   2.8901
  2.9019   2.9214   2.9394   2.9662   2.9730   3.0031   3.0364   3.0439
  3.0815   3.1136   3.1138   3.1367   3.1513   3.1574   3.1794   3.1885
  3.2319   3.2413   3.2547   3.2800   3.2993   3.3096   3.3167   3.3302
  3.3352   3.3664   3.3818   3.3976   3.4130   3.4181   3.4338   3.4395
  3.4537   3.4675   3.4799   3.4938   3.5114   3.5290   3.5320   3.5774
  3.5819   3.5895   3.5972   3.6175   3.6252   3.6365   3.6672   3.6776
  3.6860   3.6980   3.7295   3.7461   3.7767   3.7820   3.7950   3.8025
  3.8101   3.8291   3.8545   3.8722   3.8897   3.9142   3.9319   3.9601
  3.9781   3.9923   4.0071   4.0293   4.0534   4.0642   4.0987   4.1034
  4.1277   4.1319   4.1601   4.1659   4.2175   4.2208   4.2280   4.2472
  4.2882   4.2885   4.3108   4.3298   4.3403   4.3762   4.3931   4.4016
  4.4059   4.4210   4.4409   4.4599   4.4699   4.5265   4.5603   4.5912
  4.5932   4.6225   4.6301   4.6734   4.7207   4.7414   4.7697   4.7949
  4.8088   4.8293   4.8647   4.8931   4.9295   4.9542   5.0798   5.0995
  5.1097   5.1395   5.1824   5.1974   5.2366   5.2628   5.2823   5.3228
  5.3686   5.4067   5.4167   5.4436   5.4752   5.5004   5.5564   5.5638
  5.5899   5.6253   5.6426   5.6795   5.6988   5.8236   5.8445   5.8731
  5.9027   6.0475   6.0862   6.1262   6.2273   6.2558   6.3035   6.3701
  6.4772   6.5439   9.1945  11.4226  12.9533  13.8924  14.1757  14.5056
 --------------------------------------------------------------
 
          Ground-State Mulliken Net Atomic Charges

     Atom                 Charge (a.u.)
  ----------------------------------------
      1 C                     0.067730
      2 C                    -0.278698
      3 C                     0.035419
      4 H                     0.177041
      5 C                    -0.263141
      6 S                    -0.005243
      7 C                    -0.274845
      8 H                     0.101197
      9 H                     0.107295
     10 H                     0.107128
     11 C                    -0.382134
     12 H                     0.131419
     13 H                     0.147551
     14 H                     0.136545
     15 H                     0.192737
  ----------------------------------------
  Sum of atomic charges =     0.000000

 -----------------------------------------------------------------
                    Cartesian Multipole Moments
 -----------------------------------------------------------------
    Charge (ESU x 10^10)
                -0.0000
    Dipole Moment (Debye)
         X       0.4570      Y      -0.3445      Z       1.9675
       Tot       2.0491
    Quadrupole Moments (Debye-Ang)
        XX     -53.9811     XY      -0.9504     YY     -42.0881
        XZ      -0.2945     YZ      -0.8672     ZZ     -48.7434
    Octopole Moments (Debye-Ang^2)
       XXX      -0.4862    XXY     -32.2426    XYY       1.2818
       YYY     -80.2631    XXZ      -2.0886    XYZ       1.1476
       YYZ      -1.8090    XZZ      -0.1694    YZZ     -24.8222
       ZZZ       0.6567
    Hexadecapole Moments (Debye-Ang^3)
      XXXX     -78.7697   XXXY       2.1579   XXYY    -159.8941
      XYYY      -0.2473   YYYY    -813.1978   XXXZ       0.1371
      XXYZ     -29.2528   XYYZ      -3.7084   YYYZ    -108.5908
      XXZZ    -101.2484   XYZZ       0.6637   YYZZ    -214.7380
      XZZZ       0.5434   YZZZ     -98.5441   ZZZZ    -483.9177
 -----------------------------------------------------------------
 Total job time:  157.55s(wall), 156.48s(cpu) 
 Sun Jul 10 09:45:01 2022

        *************************************************************
        *                                                           *
        *  Thank you very much for using Q-Chem.  Have a nice day.  *
        *                                                           *
        *************************************************************


remove work dirs ./qchem2105098.0 -- ./qchem2105098.-1
rm -rf ./qchem2105098
