You are running Q-Chem version: 5.4.0

#
# job setting
#
local host:  exp-2-29
current dir: /expanse/lustre/scratch/theleonzhang/temp_project/Hydrogenated_Impropers_Test
input file:  Methylthiophene_Phi_40_Theta_0_Methylthiophene_Hydrogenated_Improper_Alternate.qcin
output file: 
nprocs     : 0
nthreads   : 1
#
# qchem installation setting
#
QC:          /cm/shared/apps/spack/cpu/opt/spack/linux-centos8-zen2/gcc-10.2.0/qchem-5.4-akfmr7b3t57bfs6qan3padb2wnb2i7cl
QCAUX:       /cm/shared/apps/spack/cpu/opt/spack/linux-centos8-zen2/gcc-10.2.0/qchem-5.4-akfmr7b3t57bfs6qan3padb2wnb2i7cl/qcaux
QCPROG:      /cm/shared/apps/spack/cpu/opt/spack/linux-centos8-zen2/gcc-10.2.0/qchem-5.4-akfmr7b3t57bfs6qan3padb2wnb2i7cl/exe/qcprog.exe_s
QCPROG_S:    /cm/shared/apps/spack/cpu/opt/spack/linux-centos8-zen2/gcc-10.2.0/qchem-5.4-akfmr7b3t57bfs6qan3padb2wnb2i7cl/exe/qcprog.exe_s
PARALLEL:    -DSERIAL
QCMPI:       mpich
#
# qchem directory setting
#
qcrun:       qchem562543
QCSCRATCH:   .
QCLOCALSCR:  
QCTMPDIR:    .
QCFILEPREF:  ./qchem562543
QCSAVEDIR:   
workdirs:    ./qchem562543
workdir0:    ./qchem562543
partmpdirs =  
#
# parallel setting
#
QCRSH:           ssh
QCMPI:           mpich
QCMPIRUN:        /cm/shared/apps/spack/cpu/opt/spack/linux-centos8-zen2/gcc-10.2.0/qchem-5.4-akfmr7b3t57bfs6qan3padb2wnb2i7cl/bin/mpi/mpirun_qchem
QCMACHINEFILE:   ./qchem562543/hostfile

#
# env setting
#
exported envs:   QC QCAUX QCSCRATCH QCRUNNAME QCFILEPREF QCPROG QCPROG_S GUIFILE

Running Job 1 of 1 Methylthiophene_Phi_40_Theta_0_Methylthiophene_Hydrogenated_Improper_Alternate.qcin
qchem Methylthiophene_Phi_40_Theta_0_Methylthiophene_Hydrogenated_Improper_Alternate.qcin_562543.0 ./qchem562543/ 0
/cm/shared/apps/spack/cpu/opt/spack/linux-centos8-zen2/gcc-10.2.0/qchem-5.4-akfmr7b3t57bfs6qan3padb2wnb2i7cl/exe/qcprog.exe_s Methylthiophene_Phi_40_Theta_0_Methylthiophene_Hydrogenated_Improper_Alternate.qcin_562543.0 ./qchem562543/
                  Welcome to Q-Chem
     A Quantum Leap Into The Future Of Chemistry


 Q-Chem 5.4, Q-Chem, Inc., Pleasanton, CA (2021)

 License issued to: University of California, San Diego (site)

 E. Epifanovsky,  A. T. B. Gilbert,  Xintian Feng,  Joonho Lee,  Yuezhi Mao,  
 N. Mardirossian,  P. Pokhilko,  A. White,  M. Wormit,  M. P. Coons,  
 A. L. Dempwolff,  Zhengting Gan,  D. Hait,  P. R. Horn,  L. D. Jacobson,  
 I. Kaliman,  J. Kussmann,  A. W. Lange,  Ka Un Lao,  D. S. Levine,  Jie Liu,  
 S. C. McKenzie,  A. F. Morrison,  K. Nanda,  F. Plasser,  D. R. Rehn,  
 M. L. Vidal,  Zhi-Qiang You,  Ying Zhu,  B. Alam,  B. Albrecht,  
 A. Aldossary,  E. Alguire,  J. H. Andersen,  D. Barton,  K. Begam,  A. Behn,  
 Y. A. Bernard,  E. J. Berquist,  H. Burton,  A. Carreras,  K. Carter-Fenk,  
 R. Chakraborty,  A. D. Chien,  K. D. Closser,  V. Cofer-Shabica,  
 S. Dasgupta,  Jia Deng,  M. de Wergifosse,  M. Diedenhofen,  Hainam Do,  
 S. Ehlert,  Po-Tung Fang,  S. Fatehi,  Qingguo Feng,  J. Gayvert,  
 Qinghui Ge,  G. Gidofalvi,  M. Goldey,  J. Gomes,  C. Gonzalez-Espinoza,  
 S. Gulania,  A. Gunina,  M. W. D. Hanson-Heine,  P. H. P. Harbach,  
 A. W. Hauser,  M. F. Herbst,  M. Hernandez Vera,  M. Hodecker,  
 Z. C. Holden,  S. Houck,  Xunkun Huang,  Kerwin Hui,  B. C. Huynh,  
 M. Ivanov,  Hyunjun Ji,  Hanjie Jiang,  B. Kaduk,  S. Kaehler,  
 K. Khistyaev,  Jaehoon Kim,  P. Klunzinger,  Z. Koczor-Benda,  
 Joong Hoon Koh,  D. Kosenkov,  L. Koulias,  T. Kowalczyk,  C. M. Krauter,  
 K. Kue,  A. Kunitsa,  T. Kus,  A. Landau,  K. V. Lawler,  D. Lefrancois,  
 S. Lehtola,  Rain Li,  Yi-Pei Li,  Jiashu Liang,  M. Liebenthal,  
 Hung-Hsuan Lin,  You-Sheng Lin,  Fenglai Liu,  Kuan-Yu Liu,  
 M. Loipersberger,  A. Luenser,  A. Manjanath,  P. Manohar,  E. Mansoor,  
 S. F. Manzer,  Shan-Ping Mao,  A. V. Marenich,  T. Markovich,  S. Mason,  
 S. A. Maurer,  P. F. McLaughlin,  M. F. S. J. Menger,  J.-M. Mewes,  
 S. A. Mewes,  P. Morgante,  J. W. Mullinax,  T. S. Nguyen-Beck,  
 K. J. Oosterbaan,  G. Paran,  Alexander C. Paul,  Suranjan K. Paul,  
 F. Pavosevic,  Zheng Pei,  S. Prager,  E. I. Proynov,  E. Ramos,  B. Rana,  
 A. E. Rask,  A. Rettig,  R. M. Richard,  F. Rob,  E. Rossomme,  T. Scheele,  
 M. Scheurer,  M. Schneider,  N. Sergueev,  S. M. Sharada,  W. Skomorowski,  
 D. W. Small,  C. J. Stein,  Yu-Chuan Su,  E. J. Sundstrom,  Zhen Tao,  
 J. Thirman,  T. Tsuchimochi,  N. M. Tubman,  S. P. Veccham,  O. Vydrov,  
 J. Wenzel,  J. Witte,  A. Yamada,  Kun Yao,  S. Yeganeh,  S. R. Yost,  
 A. Zech,  Igor Ying Zhang,  Xing Zhang,  Yu Zhang,  D. Zuev,  
 A. Aspuru-Guzik,  A. T. Bell,  N. A. Besley,  K. B. Bravaya,  B. R. Brooks,  
 D. Casanova,  Jeng-Da Chai,  S. Coriani,  C. J. Cramer,  
 A. E. DePrince, III,  R. A. DiStasio Jr.,  A. Dreuw,  B. D. Dunietz,  
 T. R. Furlani,  W. A. Goddard III,  S. Grimme,  S. Hammes-Schiffer,  
 T. Head-Gordon,  W. J. Hehre,  Chao-Ping Hsu,  T.-C. Jagau,  Yousung Jung,  
 A. Klamt,  Jing Kong,  D. S. Lambrecht,  WanZhen Liang,  N. J. Mayhall,  
 C. W. McCurdy,  J. B. Neaton,  C. Ochsenfeld,  J. A. Parkhill,  R. Peverati,  
 V. A. Rassolov,  Yihan Shao,  L. V. Slipchenko,  T. Stauch,  R. P. Steele,  
 J. E. Subotnik,  A. J. W. Thom,  A. Tkatchenko,  D. G. Truhlar,  
 T. Van Voorhis,  T. A. Wesolowski,  K. B. Whaley,  H. L. Woodcock III,  
 P. M. Zimmerman,  S. Faraji,  P. M. W. Gill,  M. Head-Gordon,  
 J. M. Herbert,  A. I. Krylov

 Contributors to earlier versions of Q-Chem not listed above: 
 R. D. Adamson,  B. Austin,  R. Baer,  J. Baker,  G. J. O. Beran,  
 K. Brandhorst,  S. T. Brown,  E. F. C. Byrd,  A. K. Chakraborty,  
 G. K. L. Chan,  Chun-Min Chang,  Yunqing Chen,  C.-L. Cheng,  
 Siu Hung Chien,  D. M. Chipman,  D. L. Crittenden,  H. Dachsel,  
 R. J. Doerksen,  A. D. Dutoi,  R. G. Edgar,  J. Fosso-Tande,  
 L. Fusti-Molnar,  D. Ghosh,  A. Ghysels,  A. Golubeva-Zadorozhnaya,  
 J. Gonthier,  M. S. Gordon,  S. R. Gwaltney,  G. Hawkins,  J. E. Herr,  
 A. Heyden,  S. Hirata,  E. G. Hohenstein,  G. Kedziora,  F. J. Keil,  
 C. Kelley,  Jihan Kim,  R. A. King,  R. Z. Khaliullin,  P. P. Korambath,  
 W. Kurlancheek,  A. Laurent,  A. M. Lee,  M. S. Lee,  S. V. Levchenko,  
 Ching Yeh Lin,  D. Liotard,  E. Livshits,  R. C. Lochan,  I. Lotan,  
 L. A. Martinez-Martinez,  P. E. Maslen,  N. Nair,  D. P. O'Neill,  
 D. Neuhauser,  E. Neuscamman,  C. M. Oana,  R. Olivares-Amaya,  R. Olson,  
 T. M. Perrine,  B. Peters,  P. A. Pieniazek,  A. Prociuk,  Y. M. Rhee,  
 J. Ritchie,  M. A. Rohrdanz,  E. Rosta,  N. J. Russ,  H. F. Schaefer III,  
 M. W. Schmidt,  N. E. Schultz,  S. Sharma,  N. Shenvi,  C. D. Sherrill,  
 A. C. Simmonett,  A. Sodt,  T. Stein,  D. Stuck,  K. S. Thanthiriwatte,  
 V. Vanovschi,  L. Vogt,  Tao Wang,  A. Warshel,  M. A. Watson,  
 C. F. Williams,  Q. Wu,  X. Xu,  Jun Yang,  W. Zhang,  Yan Zhao

 Please cite Q-Chem as follows:
 Y. Shao et al., Mol. Phys. 113, 184-215 (2015)
 DOI: 10.1080/00268976.2014.952696

 Q-Chem 5.4.0 for Intel X86 EM64T Linux

 Parts of Q-Chem use Armadillo 9.800.1 (Horizon Scraper).
 http://arma.sourceforge.net/

 Q-Chem begins on Sun Jul 10 09:27:40 2022  

 Host: 
0

     Scratch files written to ./qchem562543//
 May1621 |scratch|qcdevops|jenkins|workspace|build_RNUM    
 Processing $rem in /cm/shared/apps/spack/cpu/opt/spack/linux-centos8-zen2/gcc-10.2.0/qchem-5.4-akfmr7b3t57bfs6qan3padb2wnb2i7cl/config/preferences:
 Processing $rem in /home/theleonzhang/.qchemrc:
 Symmetry turned off for PCM/SM12/SMD calculation
 Core orbitals will be frozen

 Checking the input file for inconsistencies... 	...done.

--------------------------------------------------------------
User input:
--------------------------------------------------------------
$molecule
0 1
C	-0.361674	-0.487811	0.014457
C	0.070126	0.260089	1.113857
C	0.762126	1.458589	0.791157
H	-0.114274	-0.059311	2.150557
C	0.872426	1.649689	-0.598043
S	0.109526	0.328289	-1.472343
C	1.306026	2.400589	1.829057
H	1.093226	2.031989	2.851157
H	0.860326	3.413389	1.740657
H	2.406026	2.520989	1.740657
C	-0.111474	-1.906611	0.014457
H	0.952126	-1.719311	0.014557
H	0.010726	-2.599711	-0.804743
H	-0.021374	-2.417711	0.961557
H	1.347126	2.471689	-1.147143
$end

$rem
JOBTYPE		SP
EXCHANGE	HF
CORRELATION	pRIMP2
BASIS		cc-pvtz
METHOD		rimp2
AUX_BASIS	rimp2-cc-pvtz
SOLVENT_METHOD	PCM
PURECART	11111
SYMMETRY	false
MEM_TOTAL	110000
SCF_CONVERGENCE = 6
THRESH=10
$end



$solvent
dielectric 4.90
$end
--------------------------------------------------------------
 ----------------------------------------------------------------
             Standard Nuclear Orientation (Angstroms)
    I     Atom           X                Y                Z
 ----------------------------------------------------------------
    1      C      -0.3616740000    -0.4878110000     0.0144570000
    2      C       0.0701260000     0.2600890000     1.1138570000
    3      C       0.7621260000     1.4585890000     0.7911570000
    4      H      -0.1142740000    -0.0593110000     2.1505570000
    5      C       0.8724260000     1.6496890000    -0.5980430000
    6      S       0.1095260000     0.3282890000    -1.4723430000
    7      C       1.3060260000     2.4005890000     1.8290570000
    8      H       1.0932260000     2.0319890000     2.8511570000
    9      H       0.8603260000     3.4133890000     1.7406570000
   10      H       2.4060260000     2.5209890000     1.7406570000
   11      C      -0.1114740000    -1.9066110000     0.0144570000
   12      H       0.9521260000    -1.7193110000     0.0145570000
   13      H       0.0107260000    -2.5997110000    -0.8047430000
   14      H      -0.0213740000    -2.4177110000     0.9615570000
   15      H       1.3471260000     2.4716890000    -1.1471430000
 ----------------------------------------------------------------
 Nuclear Repulsion Energy =         347.93538227 hartrees
 There are       30 alpha and       30 beta electrons

 Q-Chem warning in module forms1/BasisType.C, line 2236:

 You are not using the predefined 5D/6D in this basis set.

 Requested basis set is cc-pVTZ
 There are 120 shells and 326 basis functions

 Total QAlloc Memory Limit 110000 MB
 Mega-Array Size       188 MB
 MEM_STATIC part       192 MB
 Discretize the solute cavity surface with Lebedev spheres
	Using 110 Lebedev grid points for each H atom
	Using 194 Lebedev grid points for other atoms
	Atomic van der Waals radii will be scaled by 1.20
 Remove points where switching function is < 1.0e-08
 Keep 1041 surface tesserae and discard 1197 interior tesserae
 Molecular Surface Area = 157.587 Angst**2

                       Distance Matrix (Angstroms)
             C (  1)   C (  2)   C (  3)   H (  4)   C (  5)   S (  6)
   C (  2)  1.398029
   C (  3)  2.377953  1.421056
   H (  4)  2.192656  1.100348  2.218122
   C (  5)  2.543043  2.346332  1.406614  3.383646
   S (  6)  1.760291  2.587399  2.612833  3.650442  1.758555
   C (  7)  3.796953  2.573072  1.503472  2.858622  2.577339  4.077411
   H (  8)  4.063618  2.684134  2.163796  2.514445  3.477339  4.750043
   H (  9)  4.437613  3.310679  2.175416  3.630084  2.929215  4.517180
   H ( 10)  4.437658  3.310736  2.175466  3.630135  2.929268  4.517213
   C ( 11)  1.440692  2.436442  3.562445  2.824084  3.740386  2.693361
   H ( 12)  1.800739  2.429899  3.276928  2.907801  3.425170  2.667117
   H ( 13)  2.295625  3.444272  4.425076  3.899110  4.340812  3.004769
   H ( 14)  2.176538  2.683688  3.958360  2.642802  4.446906  3.671719
   H ( 15)  3.609425  3.410869  2.263980  4.406413  1.096602  2.496312
             C (  7)   H (  8)   H (  9)   H ( 10)   C ( 11)   H ( 12)
   H (  8)  1.107176
   H (  9)  1.110057  1.787657
   H ( 10)  1.110095  1.787673  1.784815
   C ( 11)  4.884061  5.001074  5.676844  5.377845
   H ( 12)  4.515665  4.705153  5.415945  4.803477  1.079966
   H ( 13)  5.798078  5.999171  6.584698  6.199846  1.080004  1.527282
   H ( 14)  5.072530  4.961124  5.948623  5.557880  1.079972  1.527178
   H ( 15)  2.977333  4.030410  3.076225  3.076213  4.758817  4.366927
             H ( 13)   H ( 14)
   H ( 14)  1.775942
   H ( 15)  5.255692  5.497785
 
 Requested basis set is rimp2-cc-pVTZ
 There are 250 shells and 848 basis functions
 A cutoff of  1.0D-10 yielded   6306 shell pairs
 There are     46334 function pairs (     59591 Cartesian)
 Smallest overlap matrix eigenvalue = 1.28E-04

 Scale SEOQF with 1.000000e-01/1.000000e-01/1.000000e-01

 Standard Electronic Orientation quadrupole field applied
 Nucleus-field energy     =     0.0000000009 hartrees
 Guess from superposition of atomic densities
 Warning:  Energy on first SCF cycle will be non-variational
 SAD guess density has 60.000000 electrons

 -----------------------------------------------------------------------
  General SCF calculation program by
  Eric Jon Sundstrom, Paul Horn, Yuezhi Mao, Dmitri Zuev, Alec White,
  David Stuck, Shaama M.S., Shane Yost, Joonho Lee, David Small,
  Daniel Levine, Susi Lehtola, Hugh Burton, Evgeny Epifanovsky,
  Bang C. Huynh
 -----------------------------------------------------------------------
 Hartree-Fock
 A restricted SCF calculation will be
 performed using DIIS
 SCF converges when DIIS error is below 1.0e-06
 ---------------------------------------
  Cycle       Energy         DIIS error
 ---------------------------------------
    1    -632.1517535121      2.94e-02  
    2    -629.3143876916      1.93e-03  
    3    -629.3847998891      6.67e-04  
    4    -629.3921881980      3.39e-04  
    5    -629.3942179235      6.38e-05  
    6    -629.3943536963      2.62e-05  
    7    -629.3943882276      1.20e-05  
    8    -629.3943982268      5.29e-06  
    9    -629.3944000169      1.90e-06  
   10    -629.3944002525      5.89e-07  Convergence criterion met
 ---------------------------------------
 SCF time:   CPU 148.88s  wall 150.00s 

************** Final PCM Free Energy Summary **************
 G_electrostatic  =      -0.00539110 hartree =      -3.38296586 kcal/mol
 G_cavitation     =       0.00000000 hartree =       0.00000000 kcal/mol
 G_dispersion     =       0.00000000 hartree =       0.00000000 kcal/mol
 G_repulsion      =       0.00000000 hartree =       0.00000000 kcal/mol
 --------------------------------------------------
 Non-electrostatic Free Energy =       0.00000000 hartree =       0.00000000 kcal/mol
 Total                         =      -0.00539110 hartree =      -3.38296586 kcal/mol
 --------------------------------------------------
 SCF Energy (H0 + V/2)                       =    -629.39440025 
 Solute Internal Energy (H0)                 =    -629.38900915 
 Total Free Energy (H0 + V/2 + non-elec)     =    -629.39440025 hartree
                                             = -394950.94715284 kcal/mol
***********************************************************

 SCF   energy in the final basis set =     -629.3944002525
 Total energy in the final basis set =     -629.3944002525


 --------------------------------------------------------------
  Generalized many-body perturbation theory program
  by Joonho Lee, Fazle Rob, Xintian Feng, Evgeny Epifanovsky

 No regularization used 
 (reg. param. = 0.0000e+00)
  (P|Q)^-1/2 Time:  CPU 0.48 s  wall 0.49 s

 In RI-MP2 calculation: 
 # of frozen core orbitals: 11

 Components of the RIMP2 correlation energy:
        aaaa    correlation energy =        -0.1463990007 a.u.
        abab    correlation energy =        -0.8900036223 a.u.
        bbbb    correlation energy =        -0.1463990007 a.u.
        non-Brillouin singles      =        -0.0000000000 a.u.
        total same-spin energy     =        -0.2927980013 a.u.
        total opposite-spin energy =        -0.8900036223 a.u.

 Total  RIMP2   correlation energy =        -1.1828016236 a.u.
        RIMP2         total energy =      -630.5772018762 a.u.

 RI-MP2 Energy Time:  CPU 11.37 s  wall 11.42 s
 
 --------------------------------------------------------------
 
                    Orbital Energies (a.u.)
 --------------------------------------------------------------
 
 Alpha MOs
 -- Occupied --
-91.9760 -11.2766 -11.2593 -11.2490 -11.2301 -11.2277 -11.2194  -8.9764
 -6.6574  -6.6567  -6.6562  -1.1676  -1.0572  -0.9971  -0.9391  -0.8817
 -0.7465  -0.7229  -0.6454  -0.5877  -0.5827  -0.5681  -0.5523  -0.5459
 -0.5087  -0.4927  -0.4601  -0.4529  -0.3391  -0.2873
 -- Virtual --
  0.0874   0.1442   0.1564   0.1753   0.1845   0.1926   0.2121   0.2187
  0.2216   0.2435   0.2494   0.2583   0.2978   0.3242   0.3376   0.3492
  0.3758   0.3947   0.4002   0.4206   0.4433   0.4546   0.4649   0.4682
  0.4869   0.4923   0.5156   0.5312   0.5448   0.5564   0.5720   0.5821
  0.5852   0.6050   0.6076   0.6186   0.6304   0.6370   0.6400   0.6465
  0.6602   0.6686   0.6827   0.6936   0.7034   0.7496   0.7710   0.7805
  0.8000   0.8108   0.8359   0.8487   0.8608   0.8899   0.8935   0.9190
  0.9498   0.9701   1.0103   1.0346   1.0466   1.0536   1.0759   1.0815
  1.0842   1.1191   1.1263   1.1441   1.1552   1.1705   1.1922   1.1982
  1.2269   1.2460   1.2524   1.2575   1.2741   1.3037   1.3194   1.3371
  1.3506   1.3674   1.3865   1.4131   1.4286   1.4339   1.4670   1.4731
  1.4799   1.5020   1.5112   1.5238   1.5357   1.5484   1.5589   1.5721
  1.6001   1.6232   1.6454   1.6678   1.6864   1.6990   1.7269   1.7552
  1.7722   1.7871   1.8095   1.8178   1.8838   1.9233   1.9372   1.9776
  2.0031   2.0355   2.0762   2.1447   2.1718   2.1917   2.2178   2.2356
  2.2714   2.2796   2.3435   2.4053   2.4218   2.4764   2.4979   2.5427
  2.5683   2.5919   2.6268   2.6538   2.6745   2.6929   2.7160   2.7351
  2.7449   2.7687   2.7874   2.7947   2.8289   2.8449   2.8632   2.8935
  2.9139   2.9654   2.9713   2.9916   3.0230   3.0399   3.0503   3.0914
  3.1065   3.1113   3.1163   3.1312   3.1411   3.1588   3.1749   3.1877
  3.2101   3.2365   3.2436   3.2586   3.2890   3.3031   3.3155   3.3257
  3.3387   3.3604   3.3689   3.3827   3.3909   3.4052   3.4147   3.4379
  3.4495   3.4610   3.4953   3.5071   3.5165   3.5279   3.5489   3.5588
  3.5638   3.5866   3.6178   3.6220   3.6301   3.6435   3.6633   3.6914
  3.7104   3.7182   3.7291   3.7330   3.7513   3.7667   3.7955   3.8073
  3.8142   3.8408   3.8566   3.8820   3.9117   3.9341   3.9410   3.9533
  3.9950   4.0218   4.0375   4.0430   4.0527   4.0727   4.0998   4.1198
  4.1304   4.1601   4.1700   4.2046   4.2167   4.2318   4.2552   4.2755
  4.2942   4.3006   4.3186   4.3290   4.3611   4.3764   4.3970   4.4021
  4.4059   4.4515   4.4640   4.4700   4.4925   4.5249   4.5375   4.5821
  4.5863   4.6370   4.6514   4.6774   4.7084   4.7424   4.7569   4.7996
  4.8027   4.8461   4.8630   4.8753   4.9029   4.9354   5.0608   5.0880
  5.1091   5.1200   5.1646   5.2005   5.2111   5.2607   5.2891   5.3331
  5.3692   5.3993   5.4223   5.4442   5.4589   5.5176   5.5473   5.5620
  5.5909   5.6084   5.6242   5.6822   5.6976   5.8112   5.8390   5.8574
  5.9136   5.9788   6.0135   6.1581   6.2284   6.2311   6.2744   6.3567
  6.4186   6.4751   9.2174  11.6301  12.8399  13.6825  14.1796  14.4053
 --------------------------------------------------------------
 
          Ground-State Mulliken Net Atomic Charges

     Atom                 Charge (a.u.)
  ----------------------------------------
      1 C                     0.020839
      2 C                    -0.273427
      3 C                     0.043948
      4 H                     0.176416
      5 C                    -0.259336
      6 S                     0.001391
      7 C                    -0.269195
      8 H                     0.101976
      9 H                     0.107809
     10 H                     0.105956
     11 C                    -0.371211
     12 H                     0.143234
     13 H                     0.151069
     14 H                     0.126885
     15 H                     0.193645
  ----------------------------------------
  Sum of atomic charges =     0.000000

 -----------------------------------------------------------------
                    Cartesian Multipole Moments
 -----------------------------------------------------------------
    Charge (ESU x 10^10)
                -0.0000
    Dipole Moment (Debye)
         X       1.7181      Y      -0.1599      Z       1.5283
       Tot       2.3050
    Quadrupole Moments (Debye-Ang)
        XX     -52.6281     XY       2.2204     YY     -44.9996
        XZ       0.1144     YZ       0.2429     ZZ     -48.3520
    Octopole Moments (Debye-Ang^2)
       XXX     -56.0409    XXY     -21.1524    XYY      -7.8877
       YYY     -68.8518    XXZ      -2.6792    XYZ      -1.3154
       YYZ      -4.5807    XZZ     -16.4131    YZZ     -21.9367
       ZZZ       1.5256
    Hexadecapole Moments (Debye-Ang^3)
      XXXX    -210.4809   XXXY    -120.4154   XXYY    -148.2845
      XYYY    -116.2912   YYYY    -677.4883   XXXZ     -46.5395
      XXYZ     -28.8847   XYYZ     -20.2178   YYYZ     -84.8303
      XXZZ    -119.4310   XYZZ     -33.2761   YYZZ    -187.8036
      XZZZ     -51.0821   YZZZ     -87.1081   ZZZZ    -482.8160
 -----------------------------------------------------------------
 Total job time:  164.18s(wall), 160.61s(cpu) 
 Sun Jul 10 09:30:24 2022

        *************************************************************
        *                                                           *
        *  Thank you very much for using Q-Chem.  Have a nice day.  *
        *                                                           *
        *************************************************************


remove work dirs ./qchem562543.0 -- ./qchem562543.-1
rm -rf ./qchem562543
