You are running Q-Chem version: 5.4.0

#
# job setting
#
local host:  exp-2-28
current dir: /expanse/lustre/scratch/theleonzhang/temp_project/Hydrogenated_Impropers_Test
input file:  Methylthiophene_Phi_50_Theta_310_Methylthiophene_Hydrogenated_Improper.qcin
output file: 
nprocs     : 0
nthreads   : 1
#
# qchem installation setting
#
QC:          /cm/shared/apps/spack/cpu/opt/spack/linux-centos8-zen2/gcc-10.2.0/qchem-5.4-akfmr7b3t57bfs6qan3padb2wnb2i7cl
QCAUX:       /cm/shared/apps/spack/cpu/opt/spack/linux-centos8-zen2/gcc-10.2.0/qchem-5.4-akfmr7b3t57bfs6qan3padb2wnb2i7cl/qcaux
QCPROG:      /cm/shared/apps/spack/cpu/opt/spack/linux-centos8-zen2/gcc-10.2.0/qchem-5.4-akfmr7b3t57bfs6qan3padb2wnb2i7cl/exe/qcprog.exe_s
QCPROG_S:    /cm/shared/apps/spack/cpu/opt/spack/linux-centos8-zen2/gcc-10.2.0/qchem-5.4-akfmr7b3t57bfs6qan3padb2wnb2i7cl/exe/qcprog.exe_s
PARALLEL:    -DSERIAL
QCMPI:       mpich
#
# qchem directory setting
#
qcrun:       qchem1911996
QCSCRATCH:   .
QCLOCALSCR:  
QCTMPDIR:    .
QCFILEPREF:  ./qchem1911996
QCSAVEDIR:   
workdirs:    ./qchem1911996
workdir0:    ./qchem1911996
partmpdirs =  
#
# parallel setting
#
QCRSH:           ssh
QCMPI:           mpich
QCMPIRUN:        /cm/shared/apps/spack/cpu/opt/spack/linux-centos8-zen2/gcc-10.2.0/qchem-5.4-akfmr7b3t57bfs6qan3padb2wnb2i7cl/bin/mpi/mpirun_qchem
QCMACHINEFILE:   ./qchem1911996/hostfile

#
# env setting
#
exported envs:   QC QCAUX QCSCRATCH QCRUNNAME QCFILEPREF QCPROG QCPROG_S GUIFILE

Running Job 1 of 1 Methylthiophene_Phi_50_Theta_310_Methylthiophene_Hydrogenated_Improper.qcin
qchem Methylthiophene_Phi_50_Theta_310_Methylthiophene_Hydrogenated_Improper.qcin_1911996.0 ./qchem1911996/ 0
/cm/shared/apps/spack/cpu/opt/spack/linux-centos8-zen2/gcc-10.2.0/qchem-5.4-akfmr7b3t57bfs6qan3padb2wnb2i7cl/exe/qcprog.exe_s Methylthiophene_Phi_50_Theta_310_Methylthiophene_Hydrogenated_Improper.qcin_1911996.0 ./qchem1911996/
                  Welcome to Q-Chem
     A Quantum Leap Into The Future Of Chemistry


 Q-Chem 5.4, Q-Chem, Inc., Pleasanton, CA (2021)

 License issued to: University of California, San Diego (site)

 E. Epifanovsky,  A. T. B. Gilbert,  Xintian Feng,  Joonho Lee,  Yuezhi Mao,  
 N. Mardirossian,  P. Pokhilko,  A. White,  M. Wormit,  M. P. Coons,  
 A. L. Dempwolff,  Zhengting Gan,  D. Hait,  P. R. Horn,  L. D. Jacobson,  
 I. Kaliman,  J. Kussmann,  A. W. Lange,  Ka Un Lao,  D. S. Levine,  Jie Liu,  
 S. C. McKenzie,  A. F. Morrison,  K. Nanda,  F. Plasser,  D. R. Rehn,  
 M. L. Vidal,  Zhi-Qiang You,  Ying Zhu,  B. Alam,  B. Albrecht,  
 A. Aldossary,  E. Alguire,  J. H. Andersen,  D. Barton,  K. Begam,  A. Behn,  
 Y. A. Bernard,  E. J. Berquist,  H. Burton,  A. Carreras,  K. Carter-Fenk,  
 R. Chakraborty,  A. D. Chien,  K. D. Closser,  V. Cofer-Shabica,  
 S. Dasgupta,  Jia Deng,  M. de Wergifosse,  M. Diedenhofen,  Hainam Do,  
 S. Ehlert,  Po-Tung Fang,  S. Fatehi,  Qingguo Feng,  J. Gayvert,  
 Qinghui Ge,  G. Gidofalvi,  M. Goldey,  J. Gomes,  C. Gonzalez-Espinoza,  
 S. Gulania,  A. Gunina,  M. W. D. Hanson-Heine,  P. H. P. Harbach,  
 A. W. Hauser,  M. F. Herbst,  M. Hernandez Vera,  M. Hodecker,  
 Z. C. Holden,  S. Houck,  Xunkun Huang,  Kerwin Hui,  B. C. Huynh,  
 M. Ivanov,  Hyunjun Ji,  Hanjie Jiang,  B. Kaduk,  S. Kaehler,  
 K. Khistyaev,  Jaehoon Kim,  P. Klunzinger,  Z. Koczor-Benda,  
 Joong Hoon Koh,  D. Kosenkov,  L. Koulias,  T. Kowalczyk,  C. M. Krauter,  
 K. Kue,  A. Kunitsa,  T. Kus,  A. Landau,  K. V. Lawler,  D. Lefrancois,  
 S. Lehtola,  Rain Li,  Yi-Pei Li,  Jiashu Liang,  M. Liebenthal,  
 Hung-Hsuan Lin,  You-Sheng Lin,  Fenglai Liu,  Kuan-Yu Liu,  
 M. Loipersberger,  A. Luenser,  A. Manjanath,  P. Manohar,  E. Mansoor,  
 S. F. Manzer,  Shan-Ping Mao,  A. V. Marenich,  T. Markovich,  S. Mason,  
 S. A. Maurer,  P. F. McLaughlin,  M. F. S. J. Menger,  J.-M. Mewes,  
 S. A. Mewes,  P. Morgante,  J. W. Mullinax,  T. S. Nguyen-Beck,  
 K. J. Oosterbaan,  G. Paran,  Alexander C. Paul,  Suranjan K. Paul,  
 F. Pavosevic,  Zheng Pei,  S. Prager,  E. I. Proynov,  E. Ramos,  B. Rana,  
 A. E. Rask,  A. Rettig,  R. M. Richard,  F. Rob,  E. Rossomme,  T. Scheele,  
 M. Scheurer,  M. Schneider,  N. Sergueev,  S. M. Sharada,  W. Skomorowski,  
 D. W. Small,  C. J. Stein,  Yu-Chuan Su,  E. J. Sundstrom,  Zhen Tao,  
 J. Thirman,  T. Tsuchimochi,  N. M. Tubman,  S. P. Veccham,  O. Vydrov,  
 J. Wenzel,  J. Witte,  A. Yamada,  Kun Yao,  S. Yeganeh,  S. R. Yost,  
 A. Zech,  Igor Ying Zhang,  Xing Zhang,  Yu Zhang,  D. Zuev,  
 A. Aspuru-Guzik,  A. T. Bell,  N. A. Besley,  K. B. Bravaya,  B. R. Brooks,  
 D. Casanova,  Jeng-Da Chai,  S. Coriani,  C. J. Cramer,  
 A. E. DePrince, III,  R. A. DiStasio Jr.,  A. Dreuw,  B. D. Dunietz,  
 T. R. Furlani,  W. A. Goddard III,  S. Grimme,  S. Hammes-Schiffer,  
 T. Head-Gordon,  W. J. Hehre,  Chao-Ping Hsu,  T.-C. Jagau,  Yousung Jung,  
 A. Klamt,  Jing Kong,  D. S. Lambrecht,  WanZhen Liang,  N. J. Mayhall,  
 C. W. McCurdy,  J. B. Neaton,  C. Ochsenfeld,  J. A. Parkhill,  R. Peverati,  
 V. A. Rassolov,  Yihan Shao,  L. V. Slipchenko,  T. Stauch,  R. P. Steele,  
 J. E. Subotnik,  A. J. W. Thom,  A. Tkatchenko,  D. G. Truhlar,  
 T. Van Voorhis,  T. A. Wesolowski,  K. B. Whaley,  H. L. Woodcock III,  
 P. M. Zimmerman,  S. Faraji,  P. M. W. Gill,  M. Head-Gordon,  
 J. M. Herbert,  A. I. Krylov

 Contributors to earlier versions of Q-Chem not listed above: 
 R. D. Adamson,  B. Austin,  R. Baer,  J. Baker,  G. J. O. Beran,  
 K. Brandhorst,  S. T. Brown,  E. F. C. Byrd,  A. K. Chakraborty,  
 G. K. L. Chan,  Chun-Min Chang,  Yunqing Chen,  C.-L. Cheng,  
 Siu Hung Chien,  D. M. Chipman,  D. L. Crittenden,  H. Dachsel,  
 R. J. Doerksen,  A. D. Dutoi,  R. G. Edgar,  J. Fosso-Tande,  
 L. Fusti-Molnar,  D. Ghosh,  A. Ghysels,  A. Golubeva-Zadorozhnaya,  
 J. Gonthier,  M. S. Gordon,  S. R. Gwaltney,  G. Hawkins,  J. E. Herr,  
 A. Heyden,  S. Hirata,  E. G. Hohenstein,  G. Kedziora,  F. J. Keil,  
 C. Kelley,  Jihan Kim,  R. A. King,  R. Z. Khaliullin,  P. P. Korambath,  
 W. Kurlancheek,  A. Laurent,  A. M. Lee,  M. S. Lee,  S. V. Levchenko,  
 Ching Yeh Lin,  D. Liotard,  E. Livshits,  R. C. Lochan,  I. Lotan,  
 L. A. Martinez-Martinez,  P. E. Maslen,  N. Nair,  D. P. O'Neill,  
 D. Neuhauser,  E. Neuscamman,  C. M. Oana,  R. Olivares-Amaya,  R. Olson,  
 T. M. Perrine,  B. Peters,  P. A. Pieniazek,  A. Prociuk,  Y. M. Rhee,  
 J. Ritchie,  M. A. Rohrdanz,  E. Rosta,  N. J. Russ,  H. F. Schaefer III,  
 M. W. Schmidt,  N. E. Schultz,  S. Sharma,  N. Shenvi,  C. D. Sherrill,  
 A. C. Simmonett,  A. Sodt,  T. Stein,  D. Stuck,  K. S. Thanthiriwatte,  
 V. Vanovschi,  L. Vogt,  Tao Wang,  A. Warshel,  M. A. Watson,  
 C. F. Williams,  Q. Wu,  X. Xu,  Jun Yang,  W. Zhang,  Yan Zhao

 Please cite Q-Chem as follows:
 Y. Shao et al., Mol. Phys. 113, 184-215 (2015)
 DOI: 10.1080/00268976.2014.952696

 Q-Chem 5.4.0 for Intel X86 EM64T Linux

 Parts of Q-Chem use Armadillo 9.800.1 (Horizon Scraper).
 http://arma.sourceforge.net/

 Q-Chem begins on Sun Jul 10 09:57:44 2022  

 Host: 
0

     Scratch files written to ./qchem1911996//
 May1621 |scratch|qcdevops|jenkins|workspace|build_RNUM    
 Processing $rem in /cm/shared/apps/spack/cpu/opt/spack/linux-centos8-zen2/gcc-10.2.0/qchem-5.4-akfmr7b3t57bfs6qan3padb2wnb2i7cl/config/preferences:
 Processing $rem in /home/theleonzhang/.qchemrc:
 Symmetry turned off for PCM/SM12/SMD calculation
 Core orbitals will be frozen

 Checking the input file for inconsistencies... 	...done.

--------------------------------------------------------------
User input:
--------------------------------------------------------------
$molecule
0 1
C	-0.516964	-0.333974	0.010946
C	0.144636	0.221126	1.110346
C	1.204736	1.110626	0.787646
H	-0.137864	-0.015974	2.147046
C	1.373836	1.252426	-0.601554
S	0.204936	0.271726	-1.475854
C	2.038036	1.809826	1.825546
H	1.711936	1.536226	2.847646
H	1.965636	2.914026	1.737146
H	3.112836	1.546726	1.737146
C	-0.516964	-1.774674	0.010946
H	-1.211264	-1.774374	0.838246
H	-1.144464	-2.478474	-0.515654
H	0.208636	-2.293574	0.619746
H	2.100936	1.862626	-1.150654
$end

$rem
JOBTYPE		SP
EXCHANGE	HF
CORRELATION	pRIMP2
BASIS		cc-pvtz
METHOD		rimp2
AUX_BASIS	rimp2-cc-pvtz
SOLVENT_METHOD	PCM
PURECART	11111
SYMMETRY	false
MEM_TOTAL	110000
SCF_CONVERGENCE = 6
THRESH=10
$end



$solvent
dielectric 4.90
$end
--------------------------------------------------------------
 ----------------------------------------------------------------
             Standard Nuclear Orientation (Angstroms)
    I     Atom           X                Y                Z
 ----------------------------------------------------------------
    1      C      -0.5169640000    -0.3339740000     0.0109460000
    2      C       0.1446360000     0.2211260000     1.1103460000
    3      C       1.2047360000     1.1106260000     0.7876460000
    4      H      -0.1378640000    -0.0159740000     2.1470460000
    5      C       1.3738360000     1.2524260000    -0.6015540000
    6      S       0.2049360000     0.2717260000    -1.4758540000
    7      C       2.0380360000     1.8098260000     1.8255460000
    8      H       1.7119360000     1.5362260000     2.8476460000
    9      H       1.9656360000     2.9140260000     1.7371460000
   10      H       3.1128360000     1.5467260000     1.7371460000
   11      C      -0.5169640000    -1.7746740000     0.0109460000
   12      H      -1.2112640000    -1.7743740000     0.8382460000
   13      H      -1.1444640000    -2.4784740000    -0.5156540000
   14      H       0.2086360000    -2.2935740000     0.6197460000
   15      H       2.1009360000     1.8626260000    -1.1506540000
 ----------------------------------------------------------------
 Nuclear Repulsion Energy =         348.42918832 hartrees
 There are       30 alpha and       30 beta electrons

 Q-Chem warning in module forms1/BasisType.C, line 2236:

 You are not using the predefined 5D/6D in this basis set.

 Requested basis set is cc-pVTZ
 There are 120 shells and 326 basis functions

 Total QAlloc Memory Limit 110000 MB
 Mega-Array Size       188 MB
 MEM_STATIC part       192 MB
 Discretize the solute cavity surface with Lebedev spheres
	Using 110 Lebedev grid points for each H atom
	Using 194 Lebedev grid points for other atoms
	Atomic van der Waals radii will be scaled by 1.20
 Remove points where switching function is < 1.0e-08
 Keep 1051 surface tesserae and discard 1187 interior tesserae
 Molecular Surface Area = 156.622 Angst**2

                       Distance Matrix (Angstroms)
             C (  1)   C (  2)   C (  3)   H (  4)   C (  5)   S (  6)
   C (  2)  1.398045
   C (  3)  2.377895  1.420971
   H (  4)  2.192661  1.100350  2.218056
   C (  5)  2.543019  2.346298  1.406620  3.383619
   S (  6)  1.760280  2.587398  2.612812  3.650437  1.758551
   C (  7)  3.796930  2.573022  1.503498  2.858575  2.577338  4.077407
   H (  8)  4.063559  2.684051  2.163790  2.514344  3.477332  4.750017
   H (  9)  4.437631  3.310684  2.175493  3.630101  2.929276  4.517210
   H ( 10)  4.437595  3.310635  2.175449  3.630028  2.929207  4.517176
   C ( 11)  1.440700  2.372680  3.448546  2.792788  3.621273  2.630488
   H ( 12)  1.800342  2.427864  3.763355  2.440720  4.232881  3.398118
   H ( 13)  2.295636  3.404922  4.483188  3.763924  4.502092  3.210368
   H ( 14)  2.176503  2.562909  3.550913  2.764086  3.927261  3.312449
   H ( 15)  3.609400  3.410829  2.263998  4.406380  1.096599  2.496304
             C (  7)   H (  8)   H (  9)   H ( 10)   C ( 11)   H ( 12)
   H (  8)  1.107198
   H (  9)  1.110096  1.787710
   H ( 10)  1.110059  1.787692  1.784819
   C ( 11)  4.761243  4.896623  5.579156  5.214107
   H ( 12)  4.937530  4.852098  5.734266  5.525900  1.080036
   H ( 13)  5.830870  5.965620  6.620188  6.277097  1.079999  1.527503
   H ( 14)  4.651725  4.678762  5.608452  4.942759  1.079995  1.527556
   H ( 15)  2.977333  4.030417  3.076221  3.076219  4.629543  5.306049
             H ( 13)   H ( 14)
   H ( 14)  1.776007
   H ( 15)  5.457197  4.897868
 
 Requested basis set is rimp2-cc-pVTZ
 There are 250 shells and 848 basis functions
 A cutoff of  1.0D-10 yielded   6302 shell pairs
 There are     46298 function pairs (     59562 Cartesian)
 Smallest overlap matrix eigenvalue = 1.23E-04

 Scale SEOQF with 1.000000e-01/1.000000e-01/1.000000e-01

 Standard Electronic Orientation quadrupole field applied
 Nucleus-field energy     =    -0.0000000007 hartrees
 Guess from superposition of atomic densities
 Warning:  Energy on first SCF cycle will be non-variational
 SAD guess density has 60.000000 electrons

 -----------------------------------------------------------------------
  General SCF calculation program by
  Eric Jon Sundstrom, Paul Horn, Yuezhi Mao, Dmitri Zuev, Alec White,
  David Stuck, Shaama M.S., Shane Yost, Joonho Lee, David Small,
  Daniel Levine, Susi Lehtola, Hugh Burton, Evgeny Epifanovsky,
  Bang C. Huynh
 -----------------------------------------------------------------------
 Hartree-Fock
 A restricted SCF calculation will be
 performed using DIIS
 SCF converges when DIIS error is below 1.0e-06
 ---------------------------------------
  Cycle       Energy         DIIS error
 ---------------------------------------
    1    -632.1631807535      2.94e-02  
    2    -629.2944568071      1.89e-03  
    3    -629.3638068615      6.16e-04  
    4    -629.3708352354      3.09e-04  
    5    -629.3725588708      6.27e-05  
    6    -629.3727071213      2.87e-05  
    7    -629.3727498176      1.30e-05  
    8    -629.3727647286      6.59e-06  
    9    -629.3727675617      2.40e-06  
   10    -629.3727679571      9.30e-07  Convergence criterion met
 ---------------------------------------
 SCF time:   CPU 146.27s  wall 147.00s 

************** Final PCM Free Energy Summary **************
 G_electrostatic  =      -0.00559936 hartree =      -3.51365300 kcal/mol
 G_cavitation     =       0.00000000 hartree =       0.00000000 kcal/mol
 G_dispersion     =       0.00000000 hartree =       0.00000000 kcal/mol
 G_repulsion      =       0.00000000 hartree =       0.00000000 kcal/mol
 --------------------------------------------------
 Non-electrostatic Free Energy =       0.00000000 hartree =       0.00000000 kcal/mol
 Total                         =      -0.00559936 hartree =      -3.51365300 kcal/mol
 --------------------------------------------------
 SCF Energy (H0 + V/2)                       =    -629.37276796 
 Solute Internal Energy (H0)                 =    -629.36716859 
 Total Free Energy (H0 + V/2 + non-elec)     =    -629.37276796 hartree
                                             = -394937.37268260 kcal/mol
***********************************************************

 SCF   energy in the final basis set =     -629.3727679571
 Total energy in the final basis set =     -629.3727679571


 --------------------------------------------------------------
  Generalized many-body perturbation theory program
  by Joonho Lee, Fazle Rob, Xintian Feng, Evgeny Epifanovsky

 No regularization used 
 (reg. param. = 0.0000e+00)
  (P|Q)^-1/2 Time:  CPU 0.48 s  wall 0.49 s

 In RI-MP2 calculation: 
 # of frozen core orbitals: 11

 Components of the RIMP2 correlation energy:
        aaaa    correlation energy =        -0.1474981524 a.u.
        abab    correlation energy =        -0.8937010996 a.u.
        bbbb    correlation energy =        -0.1474981524 a.u.
        non-Brillouin singles      =        -0.0000000000 a.u.
        total same-spin energy     =        -0.2949963047 a.u.
        total opposite-spin energy =        -0.8937010996 a.u.

 Total  RIMP2   correlation energy =        -1.1886974044 a.u.
        RIMP2         total energy =      -630.5614653615 a.u.

 RI-MP2 Energy Time:  CPU 11.21 s  wall 11.24 s
 
 --------------------------------------------------------------
 
                    Orbital Energies (a.u.)
 --------------------------------------------------------------
 
 Alpha MOs
 -- Occupied --
-91.9715 -11.2730 -11.2561 -11.2494 -11.2462 -11.2288 -11.2101  -8.9724
 -6.6533  -6.6524  -6.6521  -1.1685  -1.0547  -0.9994  -0.9366  -0.8838
 -0.7458  -0.7287  -0.6434  -0.5892  -0.5823  -0.5656  -0.5559  -0.5430
 -0.5166  -0.4852  -0.4611  -0.4237  -0.3368  -0.2972
 -- Virtual --
  0.0720   0.1428   0.1563   0.1743   0.1793   0.1888   0.2106   0.2224
  0.2320   0.2405   0.2510   0.2627   0.2892   0.3090   0.3370   0.3518
  0.3710   0.4017   0.4175   0.4210   0.4272   0.4498   0.4580   0.4681
  0.4807   0.4899   0.5109   0.5384   0.5429   0.5600   0.5651   0.5894
  0.5938   0.5987   0.6048   0.6211   0.6285   0.6368   0.6431   0.6488
  0.6601   0.6713   0.6803   0.6977   0.7048   0.7421   0.7705   0.7802
  0.7977   0.8098   0.8314   0.8543   0.8779   0.8921   0.9154   0.9374
  0.9588   0.9764   1.0020   1.0262   1.0344   1.0466   1.0591   1.0747
  1.0923   1.0955   1.1050   1.1456   1.1618   1.1856   1.2007   1.2099
  1.2205   1.2380   1.2596   1.2662   1.2911   1.2989   1.3124   1.3166
  1.3503   1.3844   1.3981   1.4145   1.4245   1.4287   1.4496   1.4743
  1.5005   1.5052   1.5115   1.5290   1.5405   1.5494   1.5638   1.5845
  1.5950   1.6357   1.6540   1.6681   1.6833   1.7021   1.7131   1.7342
  1.7568   1.7819   1.7994   1.8324   1.8855   1.9180   1.9347   1.9624
  1.9736   2.0427   2.0957   2.1308   2.1503   2.1844   2.2020   2.2075
  2.2602   2.2692   2.3497   2.4026   2.4129   2.4749   2.5293   2.5583
  2.5771   2.5861   2.6424   2.6556   2.6599   2.6860   2.7026   2.7369
  2.7635   2.7690   2.7865   2.8161   2.8190   2.8329   2.8532   2.9019
  2.9366   2.9566   2.9618   2.9763   2.9988   3.0315   3.0470   3.0684
  3.0838   3.1115   3.1149   3.1359   3.1587   3.1684   3.1696   3.1952
  3.2238   3.2375   3.2466   3.2606   3.2817   3.2933   3.2980   3.3271
  3.3441   3.3500   3.3742   3.3881   3.3983   3.4116   3.4224   3.4464
  3.4572   3.4732   3.4763   3.5050   3.5169   3.5219   3.5433   3.5708
  3.5811   3.5858   3.6006   3.6267   3.6402   3.6605   3.6860   3.6894
  3.6980   3.7193   3.7232   3.7442   3.7717   3.7785   3.8041   3.8136
  3.8339   3.8428   3.8747   3.8807   3.9087   3.9216   3.9429   3.9735
  3.9823   4.0139   4.0167   4.0349   4.0391   4.0699   4.0996   4.1148
  4.1359   4.1450   4.1766   4.2016   4.2209   4.2279   4.2469   4.2622
  4.2870   4.2947   4.3062   4.3336   4.3541   4.3887   4.4012   4.4071
  4.4239   4.4500   4.4555   4.4875   4.5069   4.5444   4.5507   4.5880
  4.6044   4.6416   4.6675   4.6824   4.6909   4.7309   4.7540   4.7967
  4.8149   4.8509   4.8899   4.8938   4.9204   4.9338   4.9999   5.0968
  5.1083   5.1299   5.1402   5.1851   5.2108   5.2614   5.2835   5.3159
  5.3644   5.4021   5.4210   5.4385   5.4765   5.5084   5.5479   5.5525
  5.6007   5.6234   5.6275   5.6866   5.7240   5.8068   5.8403   5.8696
  5.9277   5.9945   6.0829   6.0971   6.2132   6.2286   6.2637   6.3493
  6.4198   6.4823   9.3212  11.6708  12.8227  13.6573  14.1779  14.4405
 --------------------------------------------------------------
 
          Ground-State Mulliken Net Atomic Charges

     Atom                 Charge (a.u.)
  ----------------------------------------
      1 C                    -0.045344
      2 C                    -0.189851
      3 C                     0.005174
      4 H                     0.182025
      5 C                    -0.208989
      6 S                     0.006310
      7 C                    -0.268328
      8 H                     0.101600
      9 H                     0.106974
     10 H                     0.105844
     11 C                    -0.381533
     12 H                     0.114747
     13 H                     0.142544
     14 H                     0.134181
     15 H                     0.194645
  ----------------------------------------
  Sum of atomic charges =     0.000000

 -----------------------------------------------------------------
                    Cartesian Multipole Moments
 -----------------------------------------------------------------
    Charge (ESU x 10^10)
                -0.0000
    Dipole Moment (Debye)
         X       1.4008      Y       0.1225      Z       2.1452
       Tot       2.5650
    Quadrupole Moments (Debye-Ang)
        XX     -48.8275     XY       5.5627     YY     -48.2080
        XZ       0.0770     YZ      -0.6445     ZZ     -48.2858
    Octopole Moments (Debye-Ang^2)
       XXX     -72.1742    XXY     -10.0668    XYY     -22.2091
       YYY     -49.5867    XXZ      -4.6052    XYZ      -2.7470
       YYZ      -2.3977    XZZ     -23.0959    YZZ     -13.5060
       ZZZ       1.9554
    Hexadecapole Moments (Debye-Ang^3)
      XXXX    -404.4197   XXXY    -154.0148   XXYY    -137.7059
      XYYY    -153.7224   YYYY    -482.6925   XXXZ     -75.2285
      XXYZ     -23.2718   XYYZ     -25.0923   YYYZ     -61.7142
      XXZZ    -146.2542   XYZZ     -47.1866   YYZZ    -162.9305
      XZZZ     -76.7540   YZZZ     -60.3855   ZZZZ    -481.7569
 -----------------------------------------------------------------
 Total job time:  158.63s(wall), 157.83s(cpu) 
 Sun Jul 10 10:00:23 2022

        *************************************************************
        *                                                           *
        *  Thank you very much for using Q-Chem.  Have a nice day.  *
        *                                                           *
        *************************************************************


remove work dirs ./qchem1911996.0 -- ./qchem1911996.-1
rm -rf ./qchem1911996
