You are running Q-Chem version: 5.4.0

#
# job setting
#
local host:  exp-13-53
current dir: /expanse/lustre/scratch/theleonzhang/temp_project/Hydrogenated_Impropers_Test
input file:  Methylthiophene_Phi_15_Theta_190_Methylthiophene_Hydrogenated_Improper_Alternate.qcin
output file: 
nprocs     : 0
nthreads   : 1
#
# qchem installation setting
#
QC:          /cm/shared/apps/spack/cpu/opt/spack/linux-centos8-zen2/gcc-10.2.0/qchem-5.4-akfmr7b3t57bfs6qan3padb2wnb2i7cl
QCAUX:       /cm/shared/apps/spack/cpu/opt/spack/linux-centos8-zen2/gcc-10.2.0/qchem-5.4-akfmr7b3t57bfs6qan3padb2wnb2i7cl/qcaux
QCPROG:      /cm/shared/apps/spack/cpu/opt/spack/linux-centos8-zen2/gcc-10.2.0/qchem-5.4-akfmr7b3t57bfs6qan3padb2wnb2i7cl/exe/qcprog.exe_s
QCPROG_S:    /cm/shared/apps/spack/cpu/opt/spack/linux-centos8-zen2/gcc-10.2.0/qchem-5.4-akfmr7b3t57bfs6qan3padb2wnb2i7cl/exe/qcprog.exe_s
PARALLEL:    -DSERIAL
QCMPI:       mpich
#
# qchem directory setting
#
qcrun:       qchem758494
QCSCRATCH:   .
QCLOCALSCR:  
QCTMPDIR:    .
QCFILEPREF:  ./qchem758494
QCSAVEDIR:   
workdirs:    ./qchem758494
workdir0:    ./qchem758494
partmpdirs =  
#
# parallel setting
#
QCRSH:           ssh
QCMPI:           mpich
QCMPIRUN:        /cm/shared/apps/spack/cpu/opt/spack/linux-centos8-zen2/gcc-10.2.0/qchem-5.4-akfmr7b3t57bfs6qan3padb2wnb2i7cl/bin/mpi/mpirun_qchem
QCMACHINEFILE:   ./qchem758494/hostfile

#
# env setting
#
exported envs:   QC QCAUX QCSCRATCH QCRUNNAME QCFILEPREF QCPROG QCPROG_S GUIFILE

Running Job 1 of 1 Methylthiophene_Phi_15_Theta_190_Methylthiophene_Hydrogenated_Improper_Alternate.qcin
qchem Methylthiophene_Phi_15_Theta_190_Methylthiophene_Hydrogenated_Improper_Alternate.qcin_758494.0 ./qchem758494/ 0
/cm/shared/apps/spack/cpu/opt/spack/linux-centos8-zen2/gcc-10.2.0/qchem-5.4-akfmr7b3t57bfs6qan3padb2wnb2i7cl/exe/qcprog.exe_s Methylthiophene_Phi_15_Theta_190_Methylthiophene_Hydrogenated_Improper_Alternate.qcin_758494.0 ./qchem758494/
                  Welcome to Q-Chem
     A Quantum Leap Into The Future Of Chemistry


 Q-Chem 5.4, Q-Chem, Inc., Pleasanton, CA (2021)

 License issued to: University of California, San Diego (site)

 E. Epifanovsky,  A. T. B. Gilbert,  Xintian Feng,  Joonho Lee,  Yuezhi Mao,  
 N. Mardirossian,  P. Pokhilko,  A. White,  M. Wormit,  M. P. Coons,  
 A. L. Dempwolff,  Zhengting Gan,  D. Hait,  P. R. Horn,  L. D. Jacobson,  
 I. Kaliman,  J. Kussmann,  A. W. Lange,  Ka Un Lao,  D. S. Levine,  Jie Liu,  
 S. C. McKenzie,  A. F. Morrison,  K. Nanda,  F. Plasser,  D. R. Rehn,  
 M. L. Vidal,  Zhi-Qiang You,  Ying Zhu,  B. Alam,  B. Albrecht,  
 A. Aldossary,  E. Alguire,  J. H. Andersen,  D. Barton,  K. Begam,  A. Behn,  
 Y. A. Bernard,  E. J. Berquist,  H. Burton,  A. Carreras,  K. Carter-Fenk,  
 R. Chakraborty,  A. D. Chien,  K. D. Closser,  V. Cofer-Shabica,  
 S. Dasgupta,  Jia Deng,  M. de Wergifosse,  M. Diedenhofen,  Hainam Do,  
 S. Ehlert,  Po-Tung Fang,  S. Fatehi,  Qingguo Feng,  J. Gayvert,  
 Qinghui Ge,  G. Gidofalvi,  M. Goldey,  J. Gomes,  C. Gonzalez-Espinoza,  
 S. Gulania,  A. Gunina,  M. W. D. Hanson-Heine,  P. H. P. Harbach,  
 A. W. Hauser,  M. F. Herbst,  M. Hernandez Vera,  M. Hodecker,  
 Z. C. Holden,  S. Houck,  Xunkun Huang,  Kerwin Hui,  B. C. Huynh,  
 M. Ivanov,  Hyunjun Ji,  Hanjie Jiang,  B. Kaduk,  S. Kaehler,  
 K. Khistyaev,  Jaehoon Kim,  P. Klunzinger,  Z. Koczor-Benda,  
 Joong Hoon Koh,  D. Kosenkov,  L. Koulias,  T. Kowalczyk,  C. M. Krauter,  
 K. Kue,  A. Kunitsa,  T. Kus,  A. Landau,  K. V. Lawler,  D. Lefrancois,  
 S. Lehtola,  Rain Li,  Yi-Pei Li,  Jiashu Liang,  M. Liebenthal,  
 Hung-Hsuan Lin,  You-Sheng Lin,  Fenglai Liu,  Kuan-Yu Liu,  
 M. Loipersberger,  A. Luenser,  A. Manjanath,  P. Manohar,  E. Mansoor,  
 S. F. Manzer,  Shan-Ping Mao,  A. V. Marenich,  T. Markovich,  S. Mason,  
 S. A. Maurer,  P. F. McLaughlin,  M. F. S. J. Menger,  J.-M. Mewes,  
 S. A. Mewes,  P. Morgante,  J. W. Mullinax,  T. S. Nguyen-Beck,  
 K. J. Oosterbaan,  G. Paran,  Alexander C. Paul,  Suranjan K. Paul,  
 F. Pavosevic,  Zheng Pei,  S. Prager,  E. I. Proynov,  E. Ramos,  B. Rana,  
 A. E. Rask,  A. Rettig,  R. M. Richard,  F. Rob,  E. Rossomme,  T. Scheele,  
 M. Scheurer,  M. Schneider,  N. Sergueev,  S. M. Sharada,  W. Skomorowski,  
 D. W. Small,  C. J. Stein,  Yu-Chuan Su,  E. J. Sundstrom,  Zhen Tao,  
 J. Thirman,  T. Tsuchimochi,  N. M. Tubman,  S. P. Veccham,  O. Vydrov,  
 J. Wenzel,  J. Witte,  A. Yamada,  Kun Yao,  S. Yeganeh,  S. R. Yost,  
 A. Zech,  Igor Ying Zhang,  Xing Zhang,  Yu Zhang,  D. Zuev,  
 A. Aspuru-Guzik,  A. T. Bell,  N. A. Besley,  K. B. Bravaya,  B. R. Brooks,  
 D. Casanova,  Jeng-Da Chai,  S. Coriani,  C. J. Cramer,  
 A. E. DePrince, III,  R. A. DiStasio Jr.,  A. Dreuw,  B. D. Dunietz,  
 T. R. Furlani,  W. A. Goddard III,  S. Grimme,  S. Hammes-Schiffer,  
 T. Head-Gordon,  W. J. Hehre,  Chao-Ping Hsu,  T.-C. Jagau,  Yousung Jung,  
 A. Klamt,  Jing Kong,  D. S. Lambrecht,  WanZhen Liang,  N. J. Mayhall,  
 C. W. McCurdy,  J. B. Neaton,  C. Ochsenfeld,  J. A. Parkhill,  R. Peverati,  
 V. A. Rassolov,  Yihan Shao,  L. V. Slipchenko,  T. Stauch,  R. P. Steele,  
 J. E. Subotnik,  A. J. W. Thom,  A. Tkatchenko,  D. G. Truhlar,  
 T. Van Voorhis,  T. A. Wesolowski,  K. B. Whaley,  H. L. Woodcock III,  
 P. M. Zimmerman,  S. Faraji,  P. M. W. Gill,  M. Head-Gordon,  
 J. M. Herbert,  A. I. Krylov

 Contributors to earlier versions of Q-Chem not listed above: 
 R. D. Adamson,  B. Austin,  R. Baer,  J. Baker,  G. J. O. Beran,  
 K. Brandhorst,  S. T. Brown,  E. F. C. Byrd,  A. K. Chakraborty,  
 G. K. L. Chan,  Chun-Min Chang,  Yunqing Chen,  C.-L. Cheng,  
 Siu Hung Chien,  D. M. Chipman,  D. L. Crittenden,  H. Dachsel,  
 R. J. Doerksen,  A. D. Dutoi,  R. G. Edgar,  J. Fosso-Tande,  
 L. Fusti-Molnar,  D. Ghosh,  A. Ghysels,  A. Golubeva-Zadorozhnaya,  
 J. Gonthier,  M. S. Gordon,  S. R. Gwaltney,  G. Hawkins,  J. E. Herr,  
 A. Heyden,  S. Hirata,  E. G. Hohenstein,  G. Kedziora,  F. J. Keil,  
 C. Kelley,  Jihan Kim,  R. A. King,  R. Z. Khaliullin,  P. P. Korambath,  
 W. Kurlancheek,  A. Laurent,  A. M. Lee,  M. S. Lee,  S. V. Levchenko,  
 Ching Yeh Lin,  D. Liotard,  E. Livshits,  R. C. Lochan,  I. Lotan,  
 L. A. Martinez-Martinez,  P. E. Maslen,  N. Nair,  D. P. O'Neill,  
 D. Neuhauser,  E. Neuscamman,  C. M. Oana,  R. Olivares-Amaya,  R. Olson,  
 T. M. Perrine,  B. Peters,  P. A. Pieniazek,  A. Prociuk,  Y. M. Rhee,  
 J. Ritchie,  M. A. Rohrdanz,  E. Rosta,  N. J. Russ,  H. F. Schaefer III,  
 M. W. Schmidt,  N. E. Schultz,  S. Sharma,  N. Shenvi,  C. D. Sherrill,  
 A. C. Simmonett,  A. Sodt,  T. Stein,  D. Stuck,  K. S. Thanthiriwatte,  
 V. Vanovschi,  L. Vogt,  Tao Wang,  A. Warshel,  M. A. Watson,  
 C. F. Williams,  Q. Wu,  X. Xu,  Jun Yang,  W. Zhang,  Yan Zhao

 Please cite Q-Chem as follows:
 Y. Shao et al., Mol. Phys. 113, 184-215 (2015)
 DOI: 10.1080/00268976.2014.952696

 Q-Chem 5.4.0 for Intel X86 EM64T Linux

 Parts of Q-Chem use Armadillo 9.800.1 (Horizon Scraper).
 http://arma.sourceforge.net/

 Q-Chem begins on Sun Jul 10 10:43:05 2022  

 Host: 
0

     Scratch files written to ./qchem758494//
 May1621 |scratch|qcdevops|jenkins|workspace|build_RNUM    
 Processing $rem in /cm/shared/apps/spack/cpu/opt/spack/linux-centos8-zen2/gcc-10.2.0/qchem-5.4-akfmr7b3t57bfs6qan3padb2wnb2i7cl/config/preferences:
 Processing $rem in /home/theleonzhang/.qchemrc:
 Symmetry turned off for PCM/SM12/SMD calculation
 Core orbitals will be frozen

 Checking the input file for inconsistencies... 	...done.

--------------------------------------------------------------
User input:
--------------------------------------------------------------
$molecule
0 1
C	-0.180452	-0.553191	0.014755
C	0.043048	0.281009	1.114155
C	0.401248	1.617709	0.791455
H	-0.052352	-0.075291	2.150855
C	0.458448	1.830809	-0.597745
S	0.063448	0.357109	-1.472045
C	0.682848	2.668409	1.829355
H	0.572648	2.257309	2.851455
H	-0.009752	3.531409	1.740955
H	1.714148	3.069409	1.740955
C	-0.180452	-1.993891	0.014755
H	0.883148	-1.993591	0.202455
H	-0.322752	-2.697691	0.821455
H	-0.015952	-2.512791	-0.917945
H	0.704148	2.747709	-1.146845
$end

$rem
JOBTYPE		SP
EXCHANGE	HF
CORRELATION	pRIMP2
BASIS		cc-pvtz
METHOD		rimp2
AUX_BASIS	rimp2-cc-pvtz
SOLVENT_METHOD	PCM
PURECART	11111
SYMMETRY	false
MEM_TOTAL	110000
SCF_CONVERGENCE = 6
THRESH=10
$end



$solvent
dielectric 4.90
$end
--------------------------------------------------------------
 ----------------------------------------------------------------
             Standard Nuclear Orientation (Angstroms)
    I     Atom           X                Y                Z
 ----------------------------------------------------------------
    1      C      -0.1804520000    -0.5531910000     0.0147550000
    2      C       0.0430480000     0.2810090000     1.1141550000
    3      C       0.4012480000     1.6177090000     0.7914550000
    4      H      -0.0523520000    -0.0752910000     2.1508550000
    5      C       0.4584480000     1.8308090000    -0.5977450000
    6      S       0.0634480000     0.3571090000    -1.4720450000
    7      C       0.6828480000     2.6684090000     1.8293550000
    8      H       0.5726480000     2.2573090000     2.8514550000
    9      H      -0.0097520000     3.5314090000     1.7409550000
   10      H       1.7141480000     3.0694090000     1.7409550000
   11      C      -0.1804520000    -1.9938910000     0.0147550000
   12      H       0.8831480000    -1.9935910000     0.2024550000
   13      H      -0.3227520000    -2.6976910000     0.8214550000
   14      H      -0.0159520000    -2.5127910000    -0.9179450000
   15      H       0.7041480000     2.7477090000    -1.1468450000
 ----------------------------------------------------------------
 Nuclear Repulsion Energy =         345.02514560 hartrees
 There are       30 alpha and       30 beta electrons

 Q-Chem warning in module forms1/BasisType.C, line 2236:

 You are not using the predefined 5D/6D in this basis set.

 Requested basis set is cc-pVTZ
 There are 120 shells and 326 basis functions

 Total QAlloc Memory Limit 110000 MB
 Mega-Array Size       188 MB
 MEM_STATIC part       192 MB
 Discretize the solute cavity surface with Lebedev spheres
	Using 110 Lebedev grid points for each H atom
	Using 194 Lebedev grid points for other atoms
	Atomic van der Waals radii will be scaled by 1.20
 Remove points where switching function is < 1.0e-08
 Keep 1056 surface tesserae and discard 1182 interior tesserae
 Molecular Surface Area = 158.418 Angst**2

                       Distance Matrix (Angstroms)
             C (  1)   C (  2)   C (  3)   H (  4)   C (  5)   S (  6)
   C (  2)  1.398042
   C (  3)  2.377908  1.420989
   H (  4)  2.192652  1.100363  2.218101
   C (  5)  2.542991  2.346282  1.406613  3.383628
   S (  6)  1.760315  2.587400  2.612787  3.650450  1.758470
   C (  7)  3.796942  2.573040  1.503498  2.858631  2.577352  4.077377
   H (  8)  4.063611  2.684110  2.163808  2.514456  3.477344  4.750021
   H (  9)  4.437664  3.310705  2.175481  3.630168  2.929295  4.517179
   H ( 10)  4.437624  3.310684  2.175475  3.630107  2.929237  4.517162
   C ( 11)  1.440700  2.536494  3.739691  2.874084  3.925771  2.792358
   H ( 12)  1.800341  2.590515  3.690615  2.889861  3.930232  3.000275
   H ( 13)  2.295625  3.015317  4.375815  2.952525  4.809544  3.839413
   H ( 14)  2.176470  3.455174  4.489670  3.919217  4.381146  2.923980
   H ( 15)  3.609401  3.410833  2.263991  4.406410  1.096624  2.496241
             C (  7)   H (  8)   H (  9)   H ( 10)   C ( 11)   H ( 12)
   H (  8)  1.107175
   H (  9)  1.110080  1.787661
   H ( 10)  1.110043  1.787663  1.784734
   C ( 11)  5.076918  5.165920  5.791187  5.675058
   H ( 12)  4.941778  5.018343  5.804298  5.356446  1.080035
   H ( 13)  5.551768  5.429058  6.304374  6.184972  1.079976  1.527453
   H ( 14)  5.905998  6.108083  6.603192  6.420588  1.079929  1.527497
   H ( 15)  2.977332  4.030408  3.076236  3.076196  4.961311  4.932806
             H ( 13)   H ( 14)
   H ( 14)  1.775902
   H ( 15)  5.880571  5.314490
 
 Requested basis set is rimp2-cc-pVTZ
 There are 250 shells and 848 basis functions
 A cutoff of  1.0D-10 yielded   6184 shell pairs
 There are     45292 function pairs (     58242 Cartesian)
 Smallest overlap matrix eigenvalue = 9.82E-05

 Scale SEOQF with 1.000000e-01/1.000000e-01/1.000000e-01

 Standard Electronic Orientation quadrupole field applied
 Nucleus-field energy     =     0.0000000021 hartrees
 Guess from superposition of atomic densities
 Warning:  Energy on first SCF cycle will be non-variational
 SAD guess density has 60.000000 electrons

 -----------------------------------------------------------------------
  General SCF calculation program by
  Eric Jon Sundstrom, Paul Horn, Yuezhi Mao, Dmitri Zuev, Alec White,
  David Stuck, Shaama M.S., Shane Yost, Joonho Lee, David Small,
  Daniel Levine, Susi Lehtola, Hugh Burton, Evgeny Epifanovsky,
  Bang C. Huynh
 -----------------------------------------------------------------------
 Hartree-Fock
 A restricted SCF calculation will be
 performed using DIIS
 SCF converges when DIIS error is below 1.0e-06
 ---------------------------------------
  Cycle       Energy         DIIS error
 ---------------------------------------
    1    -632.1046515858      2.92e-02  
    2    -629.3401525201      1.96e-03  
    3    -629.4108240600      7.15e-04  
    4    -629.4186852593      3.66e-04  
    5    -629.4210142970      6.22e-05  
    6    -629.4211457319      2.61e-05  
    7    -629.4211775655      1.12e-05  
    8    -629.4211864927      5.25e-06  
    9    -629.4211880092      1.72e-06  
   10    -629.4211882102      6.99e-07  Convergence criterion met
 ---------------------------------------
 SCF time:   CPU 144.12s  wall 145.00s 

************** Final PCM Free Energy Summary **************
 G_electrostatic  =      -0.00572986 hartree =      -3.59553922 kcal/mol
 G_cavitation     =       0.00000000 hartree =       0.00000000 kcal/mol
 G_dispersion     =       0.00000000 hartree =       0.00000000 kcal/mol
 G_repulsion      =       0.00000000 hartree =       0.00000000 kcal/mol
 --------------------------------------------------
 Non-electrostatic Free Energy =       0.00000000 hartree =       0.00000000 kcal/mol
 Total                         =      -0.00572986 hartree =      -3.59553922 kcal/mol
 --------------------------------------------------
 SCF Energy (H0 + V/2)                       =    -629.42118821 
 Solute Internal Energy (H0)                 =    -629.41545835 
 Total Free Energy (H0 + V/2 + non-elec)     =    -629.42118821 hartree
                                             = -394967.75684999 kcal/mol
***********************************************************

 SCF   energy in the final basis set =     -629.4211882102
 Total energy in the final basis set =     -629.4211882102


 --------------------------------------------------------------
  Generalized many-body perturbation theory program
  by Joonho Lee, Fazle Rob, Xintian Feng, Evgeny Epifanovsky

 No regularization used 
 (reg. param. = 0.0000e+00)
  (P|Q)^-1/2 Time:  CPU 0.48 s  wall 0.48 s

 In RI-MP2 calculation: 
 # of frozen core orbitals: 11

 Components of the RIMP2 correlation energy:
        aaaa    correlation energy =        -0.1452479995 a.u.
        abab    correlation energy =        -0.8855011542 a.u.
        bbbb    correlation energy =        -0.1452479995 a.u.
        non-Brillouin singles      =        -0.0000000000 a.u.
        total same-spin energy     =        -0.2904959989 a.u.
        total opposite-spin energy =        -0.8855011542 a.u.

 Total  RIMP2   correlation energy =        -1.1759971532 a.u.
        RIMP2         total energy =      -630.5971853634 a.u.

 RI-MP2 Energy Time:  CPU 11.07 s  wall 11.10 s
 
 --------------------------------------------------------------
 
                    Orbital Energies (a.u.)
 --------------------------------------------------------------
 
 Alpha MOs
 -- Occupied --
-91.9794 -11.2854 -11.2490 -11.2472 -11.2265 -11.2223 -11.2220  -8.9791
 -6.6601  -6.6595  -6.6589  -1.1613  -1.0565  -0.9973  -0.9413  -0.8824
 -0.7437  -0.7192  -0.6495  -0.5870  -0.5755  -0.5671  -0.5552  -0.5459
 -0.5066  -0.4932  -0.4666  -0.4575  -0.3383  -0.2881
 -- Virtual --
  0.1096   0.1453   0.1505   0.1742   0.1863   0.1914   0.2061   0.2238
  0.2285   0.2421   0.2487   0.2590   0.2939   0.3282   0.3440   0.3555
  0.3851   0.3906   0.3988   0.4180   0.4385   0.4598   0.4667   0.4848
  0.5016   0.5153   0.5230   0.5281   0.5361   0.5599   0.5701   0.5921
  0.6002   0.6075   0.6138   0.6215   0.6337   0.6407   0.6442   0.6489
  0.6521   0.6650   0.6827   0.7007   0.7193   0.7435   0.7696   0.7874
  0.8106   0.8247   0.8410   0.8516   0.8703   0.8922   0.8992   0.9341
  0.9476   0.9870   1.0028   1.0222   1.0395   1.0534   1.0662   1.0711
  1.0824   1.0931   1.1090   1.1295   1.1388   1.1582   1.1712   1.2061
  1.2372   1.2471   1.2583   1.2642   1.2759   1.2874   1.3148   1.3272
  1.3589   1.3761   1.3935   1.4189   1.4316   1.4464   1.4689   1.4734
  1.4832   1.5057   1.5114   1.5347   1.5366   1.5485   1.5577   1.5840
  1.6017   1.6237   1.6466   1.6709   1.6890   1.7020   1.7229   1.7494
  1.7748   1.7896   1.8083   1.8385   1.8777   1.9202   1.9384   1.9728
  2.0222   2.0496   2.1045   2.1302   2.1822   2.1954   2.2286   2.2578
  2.2797   2.3037   2.3133   2.4130   2.4457   2.4611   2.5078   2.5382
  2.5598   2.5854   2.6284   2.6513   2.6730   2.7116   2.7296   2.7383
  2.7617   2.7672   2.7698   2.7873   2.8176   2.8347   2.8592   2.8915
  2.9021   2.9398   2.9698   2.9894   3.0288   3.0387   3.0407   3.0825
  3.0921   3.1124   3.1175   3.1258   3.1463   3.1581   3.1700   3.1777
  3.2160   3.2398   3.2684   3.2802   3.2851   3.2946   3.3151   3.3316
  3.3342   3.3488   3.3846   3.3939   3.3999   3.4132   3.4286   3.4385
  3.4585   3.4649   3.4819   3.4920   3.5128   3.5244   3.5364   3.5478
  3.5842   3.5933   3.6154   3.6178   3.6330   3.6402   3.6485   3.6701
  3.6944   3.7018   3.7342   3.7380   3.7550   3.7751   3.7912   3.8020
  3.8166   3.8329   3.8651   3.8852   3.9063   3.9225   3.9487   3.9607
  3.9703   3.9893   4.0108   4.0374   4.0520   4.0650   4.0977   4.1076
  4.1229   4.1418   4.1665   4.2092   4.2182   4.2293   4.2467   4.2778
  4.2824   4.3008   4.3267   4.3444   4.3567   4.3703   4.4021   4.4023
  4.4089   4.4161   4.4566   4.4669   4.4693   4.5133   4.5418   4.5770
  4.5885   4.6067   4.6496   4.6666   4.6974   4.7198   4.7506   4.7847
  4.8037   4.8370   4.8770   4.8957   4.8985   4.9387   5.0759   5.1087
  5.1152   5.1365   5.1597   5.1931   5.2114   5.2639   5.2907   5.3338
  5.3731   5.4046   5.4148   5.4391   5.4775   5.5268   5.5463   5.5678
  5.6061   5.6076   5.6247   5.6627   5.7009   5.8136   5.8316   5.8735
  5.9155   6.0201   6.0706   6.1602   6.2280   6.2533   6.2998   6.3824
  6.4404   6.5799   9.1914  11.4049  12.9202  13.8402  14.1689  14.5609
 --------------------------------------------------------------
 
          Ground-State Mulliken Net Atomic Charges

     Atom                 Charge (a.u.)
  ----------------------------------------
      1 C                     0.059607
      2 C                    -0.309070
      3 C                     0.054424
      4 H                     0.173855
      5 C                    -0.283862
      6 S                     0.005124
      7 C                    -0.272952
      8 H                     0.101410
      9 H                     0.107363
     10 H                     0.107031
     11 C                    -0.382562
     12 H                     0.150272
     13 H                     0.160959
     14 H                     0.135558
     15 H                     0.192842
  ----------------------------------------
  Sum of atomic charges =     0.000000

 -----------------------------------------------------------------
                    Cartesian Multipole Moments
 -----------------------------------------------------------------
    Charge (ESU x 10^10)
                -0.0000
    Dipole Moment (Debye)
         X       1.0080      Y      -0.7456      Z       1.5067
       Tot       1.9601
    Quadrupole Moments (Debye-Ang)
        XX     -54.0837     XY       0.7565     YY     -42.4282
        XZ       0.0373     YZ      -0.1049     ZZ     -48.5529
    Octopole Moments (Debye-Ang^2)
       XXX     -28.9084    XXY     -28.3204    XYY      -2.1140
       YYY     -80.6147    XXZ      -1.9796    XYZ      -0.2303
       YYZ      -2.6798    XZZ      -8.2158    YZZ     -25.1499
       ZZZ       0.4522
    Hexadecapole Moments (Debye-Ang^3)
      XXXX    -115.1377   XXXY     -78.3498   XXYY    -160.5973
      XYYY     -70.8400   YYYY    -774.8872   XXXZ     -22.9979
      XXYZ     -30.0478   XYYZ     -12.0445   YYYZ    -102.9848
      XXZZ    -107.0998   XYZZ     -20.7754   YYZZ    -204.4537
      XZZZ     -26.4417   YZZZ     -97.5594   ZZZZ    -483.9719
 -----------------------------------------------------------------
 Total job time:  156.20s(wall), 155.54s(cpu) 
 Sun Jul 10 10:45:41 2022

        *************************************************************
        *                                                           *
        *  Thank you very much for using Q-Chem.  Have a nice day.  *
        *                                                           *
        *************************************************************


remove work dirs ./qchem758494.0 -- ./qchem758494.-1
rm -rf ./qchem758494
