You are running Q-Chem version: 5.4.0

#
# job setting
#
local host:  exp-2-29
current dir: /expanse/lustre/scratch/theleonzhang/temp_project/Hydrogenated_Impropers_Test
input file:  Methylthiophene_Phi_40_Theta_260_Methylthiophene_Hydrogenated_Improper_Alternate.qcin
output file: 
nprocs     : 0
nthreads   : 1
#
# qchem installation setting
#
QC:          /cm/shared/apps/spack/cpu/opt/spack/linux-centos8-zen2/gcc-10.2.0/qchem-5.4-akfmr7b3t57bfs6qan3padb2wnb2i7cl
QCAUX:       /cm/shared/apps/spack/cpu/opt/spack/linux-centos8-zen2/gcc-10.2.0/qchem-5.4-akfmr7b3t57bfs6qan3padb2wnb2i7cl/qcaux
QCPROG:      /cm/shared/apps/spack/cpu/opt/spack/linux-centos8-zen2/gcc-10.2.0/qchem-5.4-akfmr7b3t57bfs6qan3padb2wnb2i7cl/exe/qcprog.exe_s
QCPROG_S:    /cm/shared/apps/spack/cpu/opt/spack/linux-centos8-zen2/gcc-10.2.0/qchem-5.4-akfmr7b3t57bfs6qan3padb2wnb2i7cl/exe/qcprog.exe_s
PARALLEL:    -DSERIAL
QCMPI:       mpich
#
# qchem directory setting
#
qcrun:       qchem597566
QCSCRATCH:   .
QCLOCALSCR:  
QCTMPDIR:    .
QCFILEPREF:  ./qchem597566
QCSAVEDIR:   
workdirs:    ./qchem597566
workdir0:    ./qchem597566
partmpdirs =  
#
# parallel setting
#
QCRSH:           ssh
QCMPI:           mpich
QCMPIRUN:        /cm/shared/apps/spack/cpu/opt/spack/linux-centos8-zen2/gcc-10.2.0/qchem-5.4-akfmr7b3t57bfs6qan3padb2wnb2i7cl/bin/mpi/mpirun_qchem
QCMACHINEFILE:   ./qchem597566/hostfile

#
# env setting
#
exported envs:   QC QCAUX QCSCRATCH QCRUNNAME QCFILEPREF QCPROG QCPROG_S GUIFILE

Running Job 1 of 1 Methylthiophene_Phi_40_Theta_260_Methylthiophene_Hydrogenated_Improper_Alternate.qcin
qchem Methylthiophene_Phi_40_Theta_260_Methylthiophene_Hydrogenated_Improper_Alternate.qcin_597566.0 ./qchem597566/ 0
/cm/shared/apps/spack/cpu/opt/spack/linux-centos8-zen2/gcc-10.2.0/qchem-5.4-akfmr7b3t57bfs6qan3padb2wnb2i7cl/exe/qcprog.exe_s Methylthiophene_Phi_40_Theta_260_Methylthiophene_Hydrogenated_Improper_Alternate.qcin_597566.0 ./qchem597566/
                  Welcome to Q-Chem
     A Quantum Leap Into The Future Of Chemistry


 Q-Chem 5.4, Q-Chem, Inc., Pleasanton, CA (2021)

 License issued to: University of California, San Diego (site)

 E. Epifanovsky,  A. T. B. Gilbert,  Xintian Feng,  Joonho Lee,  Yuezhi Mao,  
 N. Mardirossian,  P. Pokhilko,  A. White,  M. Wormit,  M. P. Coons,  
 A. L. Dempwolff,  Zhengting Gan,  D. Hait,  P. R. Horn,  L. D. Jacobson,  
 I. Kaliman,  J. Kussmann,  A. W. Lange,  Ka Un Lao,  D. S. Levine,  Jie Liu,  
 S. C. McKenzie,  A. F. Morrison,  K. Nanda,  F. Plasser,  D. R. Rehn,  
 M. L. Vidal,  Zhi-Qiang You,  Ying Zhu,  B. Alam,  B. Albrecht,  
 A. Aldossary,  E. Alguire,  J. H. Andersen,  D. Barton,  K. Begam,  A. Behn,  
 Y. A. Bernard,  E. J. Berquist,  H. Burton,  A. Carreras,  K. Carter-Fenk,  
 R. Chakraborty,  A. D. Chien,  K. D. Closser,  V. Cofer-Shabica,  
 S. Dasgupta,  Jia Deng,  M. de Wergifosse,  M. Diedenhofen,  Hainam Do,  
 S. Ehlert,  Po-Tung Fang,  S. Fatehi,  Qingguo Feng,  J. Gayvert,  
 Qinghui Ge,  G. Gidofalvi,  M. Goldey,  J. Gomes,  C. Gonzalez-Espinoza,  
 S. Gulania,  A. Gunina,  M. W. D. Hanson-Heine,  P. H. P. Harbach,  
 A. W. Hauser,  M. F. Herbst,  M. Hernandez Vera,  M. Hodecker,  
 Z. C. Holden,  S. Houck,  Xunkun Huang,  Kerwin Hui,  B. C. Huynh,  
 M. Ivanov,  Hyunjun Ji,  Hanjie Jiang,  B. Kaduk,  S. Kaehler,  
 K. Khistyaev,  Jaehoon Kim,  P. Klunzinger,  Z. Koczor-Benda,  
 Joong Hoon Koh,  D. Kosenkov,  L. Koulias,  T. Kowalczyk,  C. M. Krauter,  
 K. Kue,  A. Kunitsa,  T. Kus,  A. Landau,  K. V. Lawler,  D. Lefrancois,  
 S. Lehtola,  Rain Li,  Yi-Pei Li,  Jiashu Liang,  M. Liebenthal,  
 Hung-Hsuan Lin,  You-Sheng Lin,  Fenglai Liu,  Kuan-Yu Liu,  
 M. Loipersberger,  A. Luenser,  A. Manjanath,  P. Manohar,  E. Mansoor,  
 S. F. Manzer,  Shan-Ping Mao,  A. V. Marenich,  T. Markovich,  S. Mason,  
 S. A. Maurer,  P. F. McLaughlin,  M. F. S. J. Menger,  J.-M. Mewes,  
 S. A. Mewes,  P. Morgante,  J. W. Mullinax,  T. S. Nguyen-Beck,  
 K. J. Oosterbaan,  G. Paran,  Alexander C. Paul,  Suranjan K. Paul,  
 F. Pavosevic,  Zheng Pei,  S. Prager,  E. I. Proynov,  E. Ramos,  B. Rana,  
 A. E. Rask,  A. Rettig,  R. M. Richard,  F. Rob,  E. Rossomme,  T. Scheele,  
 M. Scheurer,  M. Schneider,  N. Sergueev,  S. M. Sharada,  W. Skomorowski,  
 D. W. Small,  C. J. Stein,  Yu-Chuan Su,  E. J. Sundstrom,  Zhen Tao,  
 J. Thirman,  T. Tsuchimochi,  N. M. Tubman,  S. P. Veccham,  O. Vydrov,  
 J. Wenzel,  J. Witte,  A. Yamada,  Kun Yao,  S. Yeganeh,  S. R. Yost,  
 A. Zech,  Igor Ying Zhang,  Xing Zhang,  Yu Zhang,  D. Zuev,  
 A. Aspuru-Guzik,  A. T. Bell,  N. A. Besley,  K. B. Bravaya,  B. R. Brooks,  
 D. Casanova,  Jeng-Da Chai,  S. Coriani,  C. J. Cramer,  
 A. E. DePrince, III,  R. A. DiStasio Jr.,  A. Dreuw,  B. D. Dunietz,  
 T. R. Furlani,  W. A. Goddard III,  S. Grimme,  S. Hammes-Schiffer,  
 T. Head-Gordon,  W. J. Hehre,  Chao-Ping Hsu,  T.-C. Jagau,  Yousung Jung,  
 A. Klamt,  Jing Kong,  D. S. Lambrecht,  WanZhen Liang,  N. J. Mayhall,  
 C. W. McCurdy,  J. B. Neaton,  C. Ochsenfeld,  J. A. Parkhill,  R. Peverati,  
 V. A. Rassolov,  Yihan Shao,  L. V. Slipchenko,  T. Stauch,  R. P. Steele,  
 J. E. Subotnik,  A. J. W. Thom,  A. Tkatchenko,  D. G. Truhlar,  
 T. Van Voorhis,  T. A. Wesolowski,  K. B. Whaley,  H. L. Woodcock III,  
 P. M. Zimmerman,  S. Faraji,  P. M. W. Gill,  M. Head-Gordon,  
 J. M. Herbert,  A. I. Krylov

 Contributors to earlier versions of Q-Chem not listed above: 
 R. D. Adamson,  B. Austin,  R. Baer,  J. Baker,  G. J. O. Beran,  
 K. Brandhorst,  S. T. Brown,  E. F. C. Byrd,  A. K. Chakraborty,  
 G. K. L. Chan,  Chun-Min Chang,  Yunqing Chen,  C.-L. Cheng,  
 Siu Hung Chien,  D. M. Chipman,  D. L. Crittenden,  H. Dachsel,  
 R. J. Doerksen,  A. D. Dutoi,  R. G. Edgar,  J. Fosso-Tande,  
 L. Fusti-Molnar,  D. Ghosh,  A. Ghysels,  A. Golubeva-Zadorozhnaya,  
 J. Gonthier,  M. S. Gordon,  S. R. Gwaltney,  G. Hawkins,  J. E. Herr,  
 A. Heyden,  S. Hirata,  E. G. Hohenstein,  G. Kedziora,  F. J. Keil,  
 C. Kelley,  Jihan Kim,  R. A. King,  R. Z. Khaliullin,  P. P. Korambath,  
 W. Kurlancheek,  A. Laurent,  A. M. Lee,  M. S. Lee,  S. V. Levchenko,  
 Ching Yeh Lin,  D. Liotard,  E. Livshits,  R. C. Lochan,  I. Lotan,  
 L. A. Martinez-Martinez,  P. E. Maslen,  N. Nair,  D. P. O'Neill,  
 D. Neuhauser,  E. Neuscamman,  C. M. Oana,  R. Olivares-Amaya,  R. Olson,  
 T. M. Perrine,  B. Peters,  P. A. Pieniazek,  A. Prociuk,  Y. M. Rhee,  
 J. Ritchie,  M. A. Rohrdanz,  E. Rosta,  N. J. Russ,  H. F. Schaefer III,  
 M. W. Schmidt,  N. E. Schultz,  S. Sharma,  N. Shenvi,  C. D. Sherrill,  
 A. C. Simmonett,  A. Sodt,  T. Stein,  D. Stuck,  K. S. Thanthiriwatte,  
 V. Vanovschi,  L. Vogt,  Tao Wang,  A. Warshel,  M. A. Watson,  
 C. F. Williams,  Q. Wu,  X. Xu,  Jun Yang,  W. Zhang,  Yan Zhao

 Please cite Q-Chem as follows:
 Y. Shao et al., Mol. Phys. 113, 184-215 (2015)
 DOI: 10.1080/00268976.2014.952696

 Q-Chem 5.4.0 for Intel X86 EM64T Linux

 Parts of Q-Chem use Armadillo 9.800.1 (Horizon Scraper).
 http://arma.sourceforge.net/

 Q-Chem begins on Sun Jul 10 10:37:32 2022  

 Host: 
0

     Scratch files written to ./qchem597566//
 May1621 |scratch|qcdevops|jenkins|workspace|build_RNUM    
 Processing $rem in /cm/shared/apps/spack/cpu/opt/spack/linux-centos8-zen2/gcc-10.2.0/qchem-5.4-akfmr7b3t57bfs6qan3padb2wnb2i7cl/config/preferences:
 Processing $rem in /home/theleonzhang/.qchemrc:
 Symmetry turned off for PCM/SM12/SMD calculation
 Core orbitals will be frozen

 Checking the input file for inconsistencies... 	...done.

--------------------------------------------------------------
User input:
--------------------------------------------------------------
$molecule
0 1
C	-0.435764	-0.417594	0.019910
C	0.119336	0.243906	1.119310
C	1.008936	1.304106	0.796610
H	-0.117664	-0.038594	2.156010
C	1.150836	1.473106	-0.592590
S	0.170036	0.304306	-1.466890
C	1.708136	2.137306	1.834510
H	1.434536	1.811306	2.856610
H	1.445136	3.212106	1.746110
H	2.812336	2.064906	1.746110
C	-0.435764	-1.858294	0.019910
H	-0.623164	-1.858494	-1.043690
H	-1.242564	-2.562094	0.162110
H	0.496936	-2.377194	-0.144590
H	1.760936	2.200206	-1.141690
$end

$rem
JOBTYPE		SP
EXCHANGE	HF
CORRELATION	pRIMP2
BASIS		cc-pvtz
METHOD		rimp2
AUX_BASIS	rimp2-cc-pvtz
SOLVENT_METHOD	PCM
PURECART	11111
SYMMETRY	false
MEM_TOTAL	110000
SCF_CONVERGENCE = 6
THRESH=10
$end



$solvent
dielectric 4.90
$end
--------------------------------------------------------------
 ----------------------------------------------------------------
             Standard Nuclear Orientation (Angstroms)
    I     Atom           X                Y                Z
 ----------------------------------------------------------------
    1      C      -0.4357640000    -0.4175940000     0.0199100000
    2      C       0.1193360000     0.2439060000     1.1193100000
    3      C       1.0089360000     1.3041060000     0.7966100000
    4      H      -0.1176640000    -0.0385940000     2.1560100000
    5      C       1.1508360000     1.4731060000    -0.5925900000
    6      S       0.1700360000     0.3043060000    -1.4668900000
    7      C       1.7081360000     2.1373060000     1.8345100000
    8      H       1.4345360000     1.8113060000     2.8566100000
    9      H       1.4451360000     3.2121060000     1.7461100000
   10      H       2.8123360000     2.0649060000     1.7461100000
   11      C      -0.4357640000    -1.8582940000     0.0199100000
   12      H      -0.6231640000    -1.8584940000    -1.0436900000
   13      H      -1.2425640000    -2.5620940000     0.1621100000
   14      H       0.4969360000    -2.3771940000    -0.1445900000
   15      H       1.7609360000     2.2002060000    -1.1416900000
 ----------------------------------------------------------------
 Nuclear Repulsion Energy =         347.62607428 hartrees
 There are       30 alpha and       30 beta electrons

 Q-Chem warning in module forms1/BasisType.C, line 2236:

 You are not using the predefined 5D/6D in this basis set.

 Requested basis set is cc-pVTZ
 There are 120 shells and 326 basis functions

 Total QAlloc Memory Limit 110000 MB
 Mega-Array Size       188 MB
 MEM_STATIC part       192 MB
 Discretize the solute cavity surface with Lebedev spheres
	Using 110 Lebedev grid points for each H atom
	Using 194 Lebedev grid points for other atoms
	Atomic van der Waals radii will be scaled by 1.20
 Remove points where switching function is < 1.0e-08
 Keep 1044 surface tesserae and discard 1194 interior tesserae
 Molecular Surface Area = 157.353 Angst**2

                       Distance Matrix (Angstroms)
             C (  1)   C (  2)   C (  3)   H (  4)   C (  5)   S (  6)
   C (  2)  1.397998
   C (  3)  2.377955  1.421108
   H (  4)  2.192659  1.100328  2.218116
   C (  5)  2.543069  2.346386  1.406618  3.383656
   S (  6)  1.760315  2.587402  2.612812  3.650446  1.758540
   C (  7)  3.796919  2.573084  1.503442  2.858575  2.577316  4.077362
   H (  8)  4.063605  2.684158  2.163790  2.514417  3.477333  4.750017
   H (  9)  4.437598  3.310715  2.175382  3.630071  2.929207  4.517140
   H ( 10)  4.437649  3.310766  2.175458  3.630101  2.929220  4.517171
   C ( 11)  1.440700  2.436403  3.562470  2.824078  3.740412  2.693401
   H ( 12)  1.800710  3.106439  4.006556  3.715595  3.801332  2.342214
   H ( 13)  2.295654  3.262612  4.518777  3.407211  4.751923  3.586827
   H ( 14)  2.176470  2.934313  3.834054  3.337595  3.931043  3.007621
   H ( 15)  3.609388  3.410877  2.263958  4.406380  1.096543  2.496228
             C (  7)   H (  8)   H (  9)   H ( 10)   C ( 11)   H ( 12)
   H (  8)  1.107168
   H (  9)  1.110035  1.787614
   H ( 10)  1.110096  1.787696  1.784742
   C ( 11)  4.884045  5.001085  5.676840  5.377864
   H ( 12)  5.448432  5.737064  6.145879  5.914280  1.079983
   H ( 13)  5.795508  5.792566  6.563092  6.352983  1.080038  1.527306
   H ( 14)  5.075879  5.237349  5.976128  5.354258  1.079929  1.527107
   H ( 15)  2.977333  4.030407  3.076209  3.076221  4.758805  4.708140
             H ( 13)   H ( 14)
   H ( 14)  1.775982
   H ( 15)  5.779309  4.852267
 
 Requested basis set is rimp2-cc-pVTZ
 There are 250 shells and 848 basis functions
 A cutoff of  1.0D-10 yielded   6235 shell pairs
 There are     45821 function pairs (     58973 Cartesian)
 Smallest overlap matrix eigenvalue = 1.35E-04

 Scale SEOQF with 1.000000e-01/1.000000e-01/1.000000e-01

 Standard Electronic Orientation quadrupole field applied
 Nucleus-field energy     =     0.0000000003 hartrees
 Guess from superposition of atomic densities
 Warning:  Energy on first SCF cycle will be non-variational
 SAD guess density has 60.000000 electrons

 -----------------------------------------------------------------------
  General SCF calculation program by
  Eric Jon Sundstrom, Paul Horn, Yuezhi Mao, Dmitri Zuev, Alec White,
  David Stuck, Shaama M.S., Shane Yost, Joonho Lee, David Small,
  Daniel Levine, Susi Lehtola, Hugh Burton, Evgeny Epifanovsky,
  Bang C. Huynh
 -----------------------------------------------------------------------
 Hartree-Fock
 A restricted SCF calculation will be
 performed using DIIS
 SCF converges when DIIS error is below 1.0e-06
 ---------------------------------------
  Cycle       Energy         DIIS error
 ---------------------------------------
    1    -632.1537410804      2.94e-02  
    2    -629.3081723946      1.93e-03  
    3    -629.3788041888      6.67e-04  
    4    -629.3863723235      3.28e-04  
    5    -629.3883766166      6.34e-05  
    6    -629.3885249457      2.67e-05  
    7    -629.3885656206      1.23e-05  
    8    -629.3885779743      4.15e-06  
    9    -629.3885795424      1.25e-06  
   10    -629.3885796486      5.57e-07  Convergence criterion met
 ---------------------------------------
 SCF time:   CPU 144.52s  wall 145.00s 

************** Final PCM Free Energy Summary **************
 G_electrostatic  =      -0.00490840 hartree =      -3.08006903 kcal/mol
 G_cavitation     =       0.00000000 hartree =       0.00000000 kcal/mol
 G_dispersion     =       0.00000000 hartree =       0.00000000 kcal/mol
 G_repulsion      =       0.00000000 hartree =       0.00000000 kcal/mol
 --------------------------------------------------
 Non-electrostatic Free Energy =       0.00000000 hartree =       0.00000000 kcal/mol
 Total                         =      -0.00490840 hartree =      -3.08006903 kcal/mol
 --------------------------------------------------
 SCF Energy (H0 + V/2)                       =    -629.38857965 
 Solute Internal Energy (H0)                 =    -629.38367125 
 Total Free Energy (H0 + V/2 + non-elec)     =    -629.38857965 hartree
                                             = -394947.29466874 kcal/mol
***********************************************************

 SCF   energy in the final basis set =     -629.3885796486
 Total energy in the final basis set =     -629.3885796486


 --------------------------------------------------------------
  Generalized many-body perturbation theory program
  by Joonho Lee, Fazle Rob, Xintian Feng, Evgeny Epifanovsky

 No regularization used 
 (reg. param. = 0.0000e+00)
  (P|Q)^-1/2 Time:  CPU 0.49 s  wall 0.49 s

 In RI-MP2 calculation: 
 # of frozen core orbitals: 11

 Components of the RIMP2 correlation energy:
        aaaa    correlation energy =        -0.1467006128 a.u.
        abab    correlation energy =        -0.8911880557 a.u.
        bbbb    correlation energy =        -0.1467006128 a.u.
        non-Brillouin singles      =        -0.0000000000 a.u.
        total same-spin energy     =        -0.2934012257 a.u.
        total opposite-spin energy =        -0.8911880557 a.u.

 Total  RIMP2   correlation energy =        -1.1845892814 a.u.
        RIMP2         total energy =      -630.5731689300 a.u.

 RI-MP2 Energy Time:  CPU 11.33 s  wall 11.37 s
 
 --------------------------------------------------------------
 
                    Orbital Energies (a.u.)
 --------------------------------------------------------------
 
 Alpha MOs
 -- Occupied --
-91.9784 -11.2686 -11.2607 -11.2475 -11.2379 -11.2275 -11.2115  -8.9787
 -6.6595  -6.6589  -6.6584  -1.1660  -1.0554  -0.9945  -0.9452  -0.8801
 -0.7508  -0.7222  -0.6448  -0.5917  -0.5769  -0.5667  -0.5520  -0.5473
 -0.5138  -0.4715  -0.4637  -0.4415  -0.3357  -0.3044
 -- Virtual --
  0.0809   0.1426   0.1531   0.1758   0.1855   0.1911   0.1955   0.2282
  0.2345   0.2442   0.2471   0.2826   0.2902   0.3066   0.3441   0.3525
  0.3700   0.3917   0.4019   0.4180   0.4328   0.4614   0.4640   0.4730
  0.4887   0.4948   0.5190   0.5313   0.5374   0.5509   0.5731   0.5779
  0.5941   0.6026   0.6143   0.6215   0.6281   0.6390   0.6441   0.6563
  0.6601   0.6651   0.6797   0.6990   0.7413   0.7604   0.7642   0.7736
  0.7984   0.8032   0.8372   0.8445   0.8644   0.8826   0.9000   0.9145
  0.9549   0.9652   1.0008   1.0230   1.0379   1.0542   1.0605   1.0778
  1.0845   1.1030   1.1291   1.1408   1.1600   1.1748   1.2083   1.2166
  1.2296   1.2435   1.2472   1.2661   1.2740   1.2961   1.3291   1.3384
  1.3416   1.3525   1.3863   1.4093   1.4171   1.4227   1.4581   1.4721
  1.4929   1.5068   1.5121   1.5182   1.5469   1.5700   1.5773   1.5991
  1.6121   1.6192   1.6360   1.6498   1.6759   1.6957   1.7065   1.7408
  1.7569   1.7910   1.8000   1.8334   1.8753   1.9273   1.9416   1.9630
  1.9945   2.0474   2.0678   2.1238   2.1603   2.1878   2.2062   2.2192
  2.2537   2.2708   2.3408   2.4103   2.4507   2.4847   2.5381   2.5607
  2.5764   2.6065   2.6486   2.6677   2.6721   2.7058   2.7201   2.7383
  2.7598   2.7642   2.7836   2.8006   2.8250   2.8378   2.8717   2.8910
  2.9015   2.9241   2.9529   2.9875   2.9948   3.0268   3.0586   3.0779
  3.0878   3.1087   3.1168   3.1406   3.1531   3.1670   3.1804   3.1965
  3.2208   3.2381   3.2519   3.2621   3.2693   3.2937   3.3089   3.3247
  3.3431   3.3609   3.3643   3.3792   3.3856   3.4107   3.4222   3.4276
  3.4289   3.4651   3.4835   3.5048   3.5166   3.5512   3.5572   3.5723
  3.5884   3.6000   3.6158   3.6324   3.6481   3.6575   3.6802   3.6968
  3.7026   3.7251   3.7309   3.7473   3.7627   3.7849   3.8005   3.8016
  3.8372   3.8457   3.8637   3.8797   3.9101   3.9221   3.9518   3.9543
  3.9804   3.9910   4.0042   4.0302   4.0436   4.0683   4.0974   4.1085
  4.1221   4.1434   4.1661   4.1941   4.1979   4.2234   4.2397   4.2495
  4.2688   4.2818   4.3121   4.3301   4.3554   4.3750   4.3933   4.4042
  4.4193   4.4284   4.4377   4.4756   4.4990   4.5260   4.5435   4.5879
  4.6030   4.6294   4.6521   4.6995   4.7179   4.7277   4.7655   4.7807
  4.7953   4.8239   4.8479   4.9057   4.9151   4.9512   5.0610   5.0864
  5.1005   5.1372   5.1747   5.1900   5.2259   5.2738   5.2876   5.3057
  5.3671   5.4051   5.4123   5.4358   5.4804   5.4865   5.5466   5.5570
  5.5960   5.6196   5.6281   5.6868   5.7109   5.8142   5.8251   5.8346
  5.8979   6.0184   6.0364   6.1059   6.2262   6.2303   6.2728   6.3534
  6.4158   6.4584   9.1540  11.6000  12.8289  13.7842  14.1663  14.2344
 --------------------------------------------------------------
 
          Ground-State Mulliken Net Atomic Charges

     Atom                 Charge (a.u.)
  ----------------------------------------
      1 C                    -0.025639
      2 C                    -0.210117
      3 C                     0.027541
      4 H                     0.178533
      5 C                    -0.230882
      6 S                     0.002818
      7 C                    -0.270309
      8 H                     0.102005
      9 H                     0.106818
     10 H                     0.105281
     11 C                    -0.358344
     12 H                     0.109367
     13 H                     0.138582
     14 H                     0.127843
     15 H                     0.196503
  ----------------------------------------
  Sum of atomic charges =     0.000000

 -----------------------------------------------------------------
                    Cartesian Multipole Moments
 -----------------------------------------------------------------
    Charge (ESU x 10^10)
                -0.0000
    Dipole Moment (Debye)
         X       1.2704      Y       0.2540      Z       1.0138
       Tot       1.6451
    Quadrupole Moments (Debye-Ang)
        XX     -50.3594     XY       4.8471     YY     -46.4501
        XZ       0.0664     YZ       1.0816     ZZ     -48.4726
    Octopole Moments (Debye-Ang^2)
       XXX     -64.2463    XXY     -16.5966    XYY     -15.9378
       YYY     -60.0930    XXZ      -3.2046    XYZ      -2.0824
       YYZ      -5.9376    XZZ     -19.4203    YZZ     -16.0749
       ZZZ       3.1054
    Hexadecapole Moments (Debye-Ang^3)
      XXXX    -310.5450   XXXY    -152.9835   XXYY    -138.4774
      XYYY    -144.7272   YYYY    -588.1509   XXXZ     -63.8206
      XXYZ     -29.2471   XYYZ     -25.9043   YYYZ     -76.3845
      XXZZ    -133.3881   XYZZ     -45.4748   YYZZ    -181.3439
      XZZZ     -66.6967   YZZZ     -80.8188   ZZZZ    -479.4309
 -----------------------------------------------------------------
 Total job time:  158.38s(wall), 156.21s(cpu) 
 Sun Jul 10 10:40:10 2022

        *************************************************************
        *                                                           *
        *  Thank you very much for using Q-Chem.  Have a nice day.  *
        *                                                           *
        *************************************************************


remove work dirs ./qchem597566.0 -- ./qchem597566.-1
rm -rf ./qchem597566
