You are running Q-Chem version: 5.4.0

#
# job setting
#
local host:  exp-6-19
current dir: /expanse/lustre/scratch/theleonzhang/temp_project/Hydrogenated_Impropers_Test
input file:  Methylthiophene_Phi_0_Theta_240_Methylthiophene_Hydrogenated_Improper.qcin
output file: 
nprocs     : 0
nthreads   : 1
#
# qchem installation setting
#
QC:          /cm/shared/apps/spack/cpu/opt/spack/linux-centos8-zen2/gcc-10.2.0/qchem-5.4-akfmr7b3t57bfs6qan3padb2wnb2i7cl
QCAUX:       /cm/shared/apps/spack/cpu/opt/spack/linux-centos8-zen2/gcc-10.2.0/qchem-5.4-akfmr7b3t57bfs6qan3padb2wnb2i7cl/qcaux
QCPROG:      /cm/shared/apps/spack/cpu/opt/spack/linux-centos8-zen2/gcc-10.2.0/qchem-5.4-akfmr7b3t57bfs6qan3padb2wnb2i7cl/exe/qcprog.exe_s
QCPROG_S:    /cm/shared/apps/spack/cpu/opt/spack/linux-centos8-zen2/gcc-10.2.0/qchem-5.4-akfmr7b3t57bfs6qan3padb2wnb2i7cl/exe/qcprog.exe_s
PARALLEL:    -DSERIAL
QCMPI:       mpich
#
# qchem directory setting
#
qcrun:       qchem2424763
QCSCRATCH:   .
QCLOCALSCR:  
QCTMPDIR:    .
QCFILEPREF:  ./qchem2424763
QCSAVEDIR:   
workdirs:    ./qchem2424763
workdir0:    ./qchem2424763
partmpdirs =  
#
# parallel setting
#
QCRSH:           ssh
QCMPI:           mpich
QCMPIRUN:        /cm/shared/apps/spack/cpu/opt/spack/linux-centos8-zen2/gcc-10.2.0/qchem-5.4-akfmr7b3t57bfs6qan3padb2wnb2i7cl/bin/mpi/mpirun_qchem
QCMACHINEFILE:   ./qchem2424763/hostfile

#
# env setting
#
exported envs:   QC QCAUX QCSCRATCH QCRUNNAME QCFILEPREF QCPROG QCPROG_S GUIFILE

Running Job 1 of 1 Methylthiophene_Phi_0_Theta_240_Methylthiophene_Hydrogenated_Improper.qcin
qchem Methylthiophene_Phi_0_Theta_240_Methylthiophene_Hydrogenated_Improper.qcin_2424763.0 ./qchem2424763/ 0
/cm/shared/apps/spack/cpu/opt/spack/linux-centos8-zen2/gcc-10.2.0/qchem-5.4-akfmr7b3t57bfs6qan3padb2wnb2i7cl/exe/qcprog.exe_s Methylthiophene_Phi_0_Theta_240_Methylthiophene_Hydrogenated_Improper.qcin_2424763.0 ./qchem2424763/
                  Welcome to Q-Chem
     A Quantum Leap Into The Future Of Chemistry


 Q-Chem 5.4, Q-Chem, Inc., Pleasanton, CA (2021)

 License issued to: University of California, San Diego (site)

 E. Epifanovsky,  A. T. B. Gilbert,  Xintian Feng,  Joonho Lee,  Yuezhi Mao,  
 N. Mardirossian,  P. Pokhilko,  A. White,  M. Wormit,  M. P. Coons,  
 A. L. Dempwolff,  Zhengting Gan,  D. Hait,  P. R. Horn,  L. D. Jacobson,  
 I. Kaliman,  J. Kussmann,  A. W. Lange,  Ka Un Lao,  D. S. Levine,  Jie Liu,  
 S. C. McKenzie,  A. F. Morrison,  K. Nanda,  F. Plasser,  D. R. Rehn,  
 M. L. Vidal,  Zhi-Qiang You,  Ying Zhu,  B. Alam,  B. Albrecht,  
 A. Aldossary,  E. Alguire,  J. H. Andersen,  D. Barton,  K. Begam,  A. Behn,  
 Y. A. Bernard,  E. J. Berquist,  H. Burton,  A. Carreras,  K. Carter-Fenk,  
 R. Chakraborty,  A. D. Chien,  K. D. Closser,  V. Cofer-Shabica,  
 S. Dasgupta,  Jia Deng,  M. de Wergifosse,  M. Diedenhofen,  Hainam Do,  
 S. Ehlert,  Po-Tung Fang,  S. Fatehi,  Qingguo Feng,  J. Gayvert,  
 Qinghui Ge,  G. Gidofalvi,  M. Goldey,  J. Gomes,  C. Gonzalez-Espinoza,  
 S. Gulania,  A. Gunina,  M. W. D. Hanson-Heine,  P. H. P. Harbach,  
 A. W. Hauser,  M. F. Herbst,  M. Hernandez Vera,  M. Hodecker,  
 Z. C. Holden,  S. Houck,  Xunkun Huang,  Kerwin Hui,  B. C. Huynh,  
 M. Ivanov,  Hyunjun Ji,  Hanjie Jiang,  B. Kaduk,  S. Kaehler,  
 K. Khistyaev,  Jaehoon Kim,  P. Klunzinger,  Z. Koczor-Benda,  
 Joong Hoon Koh,  D. Kosenkov,  L. Koulias,  T. Kowalczyk,  C. M. Krauter,  
 K. Kue,  A. Kunitsa,  T. Kus,  A. Landau,  K. V. Lawler,  D. Lefrancois,  
 S. Lehtola,  Rain Li,  Yi-Pei Li,  Jiashu Liang,  M. Liebenthal,  
 Hung-Hsuan Lin,  You-Sheng Lin,  Fenglai Liu,  Kuan-Yu Liu,  
 M. Loipersberger,  A. Luenser,  A. Manjanath,  P. Manohar,  E. Mansoor,  
 S. F. Manzer,  Shan-Ping Mao,  A. V. Marenich,  T. Markovich,  S. Mason,  
 S. A. Maurer,  P. F. McLaughlin,  M. F. S. J. Menger,  J.-M. Mewes,  
 S. A. Mewes,  P. Morgante,  J. W. Mullinax,  T. S. Nguyen-Beck,  
 K. J. Oosterbaan,  G. Paran,  Alexander C. Paul,  Suranjan K. Paul,  
 F. Pavosevic,  Zheng Pei,  S. Prager,  E. I. Proynov,  E. Ramos,  B. Rana,  
 A. E. Rask,  A. Rettig,  R. M. Richard,  F. Rob,  E. Rossomme,  T. Scheele,  
 M. Scheurer,  M. Schneider,  N. Sergueev,  S. M. Sharada,  W. Skomorowski,  
 D. W. Small,  C. J. Stein,  Yu-Chuan Su,  E. J. Sundstrom,  Zhen Tao,  
 J. Thirman,  T. Tsuchimochi,  N. M. Tubman,  S. P. Veccham,  O. Vydrov,  
 J. Wenzel,  J. Witte,  A. Yamada,  Kun Yao,  S. Yeganeh,  S. R. Yost,  
 A. Zech,  Igor Ying Zhang,  Xing Zhang,  Yu Zhang,  D. Zuev,  
 A. Aspuru-Guzik,  A. T. Bell,  N. A. Besley,  K. B. Bravaya,  B. R. Brooks,  
 D. Casanova,  Jeng-Da Chai,  S. Coriani,  C. J. Cramer,  
 A. E. DePrince, III,  R. A. DiStasio Jr.,  A. Dreuw,  B. D. Dunietz,  
 T. R. Furlani,  W. A. Goddard III,  S. Grimme,  S. Hammes-Schiffer,  
 T. Head-Gordon,  W. J. Hehre,  Chao-Ping Hsu,  T.-C. Jagau,  Yousung Jung,  
 A. Klamt,  Jing Kong,  D. S. Lambrecht,  WanZhen Liang,  N. J. Mayhall,  
 C. W. McCurdy,  J. B. Neaton,  C. Ochsenfeld,  J. A. Parkhill,  R. Peverati,  
 V. A. Rassolov,  Yihan Shao,  L. V. Slipchenko,  T. Stauch,  R. P. Steele,  
 J. E. Subotnik,  A. J. W. Thom,  A. Tkatchenko,  D. G. Truhlar,  
 T. Van Voorhis,  T. A. Wesolowski,  K. B. Whaley,  H. L. Woodcock III,  
 P. M. Zimmerman,  S. Faraji,  P. M. W. Gill,  M. Head-Gordon,  
 J. M. Herbert,  A. I. Krylov

 Contributors to earlier versions of Q-Chem not listed above: 
 R. D. Adamson,  B. Austin,  R. Baer,  J. Baker,  G. J. O. Beran,  
 K. Brandhorst,  S. T. Brown,  E. F. C. Byrd,  A. K. Chakraborty,  
 G. K. L. Chan,  Chun-Min Chang,  Yunqing Chen,  C.-L. Cheng,  
 Siu Hung Chien,  D. M. Chipman,  D. L. Crittenden,  H. Dachsel,  
 R. J. Doerksen,  A. D. Dutoi,  R. G. Edgar,  J. Fosso-Tande,  
 L. Fusti-Molnar,  D. Ghosh,  A. Ghysels,  A. Golubeva-Zadorozhnaya,  
 J. Gonthier,  M. S. Gordon,  S. R. Gwaltney,  G. Hawkins,  J. E. Herr,  
 A. Heyden,  S. Hirata,  E. G. Hohenstein,  G. Kedziora,  F. J. Keil,  
 C. Kelley,  Jihan Kim,  R. A. King,  R. Z. Khaliullin,  P. P. Korambath,  
 W. Kurlancheek,  A. Laurent,  A. M. Lee,  M. S. Lee,  S. V. Levchenko,  
 Ching Yeh Lin,  D. Liotard,  E. Livshits,  R. C. Lochan,  I. Lotan,  
 L. A. Martinez-Martinez,  P. E. Maslen,  N. Nair,  D. P. O'Neill,  
 D. Neuhauser,  E. Neuscamman,  C. M. Oana,  R. Olivares-Amaya,  R. Olson,  
 T. M. Perrine,  B. Peters,  P. A. Pieniazek,  A. Prociuk,  Y. M. Rhee,  
 J. Ritchie,  M. A. Rohrdanz,  E. Rosta,  N. J. Russ,  H. F. Schaefer III,  
 M. W. Schmidt,  N. E. Schultz,  S. Sharma,  N. Shenvi,  C. D. Sherrill,  
 A. C. Simmonett,  A. Sodt,  T. Stein,  D. Stuck,  K. S. Thanthiriwatte,  
 V. Vanovschi,  L. Vogt,  Tao Wang,  A. Warshel,  M. A. Watson,  
 C. F. Williams,  Q. Wu,  X. Xu,  Jun Yang,  W. Zhang,  Yan Zhao

 Please cite Q-Chem as follows:
 Y. Shao et al., Mol. Phys. 113, 184-215 (2015)
 DOI: 10.1080/00268976.2014.952696

 Q-Chem 5.4.0 for Intel X86 EM64T Linux

 Parts of Q-Chem use Armadillo 9.800.1 (Horizon Scraper).
 http://arma.sourceforge.net/

 Q-Chem begins on Sun Jul 10 09:14:04 2022  

 Host: 
0

     Scratch files written to ./qchem2424763//
 May1621 |scratch|qcdevops|jenkins|workspace|build_RNUM    
 Processing $rem in /cm/shared/apps/spack/cpu/opt/spack/linux-centos8-zen2/gcc-10.2.0/qchem-5.4-akfmr7b3t57bfs6qan3padb2wnb2i7cl/config/preferences:
 Processing $rem in /home/theleonzhang/.qchemrc:
 Symmetry turned off for PCM/SM12/SMD calculation
 Core orbitals will be frozen

 Checking the input file for inconsistencies... 	...done.

--------------------------------------------------------------
User input:
--------------------------------------------------------------
$molecule
0 1
C	-0.002941	-0.576312	0.011118
C	-0.002941	0.287288	1.110518
C	-0.002841	1.671188	0.787818
H	-0.002941	-0.081512	2.147218
C	-0.002841	1.891888	-0.601382
S	-0.002941	0.366088	-1.475682
C	-0.002841	2.758988	1.825718
H	-0.002841	2.333288	2.847818
H	-0.895241	3.413288	1.737318
H	0.889559	3.413188	1.737318
C	-0.002941	-2.017012	0.011118
H	0.536959	-2.016712	0.946518
H	-0.712441	-2.720812	0.420618
H	0.817259	-2.535912	-0.462482
H	-0.002841	2.841088	-1.150482
$end

$rem
JOBTYPE		SP
EXCHANGE	HF
CORRELATION	pRIMP2
BASIS		cc-pvtz
METHOD		rimp2
AUX_BASIS	rimp2-cc-pvtz
SOLVENT_METHOD	PCM
PURECART	11111
SYMMETRY	false
MEM_TOTAL	110000
SCF_CONVERGENCE = 6
THRESH=10
$end



$solvent
dielectric 4.90
$end
--------------------------------------------------------------
 ----------------------------------------------------------------
             Standard Nuclear Orientation (Angstroms)
    I     Atom           X                Y                Z
 ----------------------------------------------------------------
    1      C      -0.0029410000    -0.5763120000     0.0111180000
    2      C      -0.0029410000     0.2872880000     1.1105180000
    3      C      -0.0028410000     1.6711880000     0.7878180000
    4      H      -0.0029410000    -0.0815120000     2.1472180000
    5      C      -0.0028410000     1.8918880000    -0.6013820000
    6      S      -0.0029410000     0.3660880000    -1.4756820000
    7      C      -0.0028410000     2.7589880000     1.8257180000
    8      H      -0.0028410000     2.3332880000     2.8478180000
    9      H      -0.8952410000     3.4132880000     1.7373180000
   10      H       0.8895590000     3.4131880000     1.7373180000
   11      C      -0.0029410000    -2.0170120000     0.0111180000
   12      H       0.5369590000    -2.0167120000     0.9465180000
   13      H      -0.7124410000    -2.7208120000     0.4206180000
   14      H       0.8172590000    -2.5359120000    -0.4624820000
   15      H      -0.0028410000     2.8410880000    -1.1504820000
 ----------------------------------------------------------------
 Nuclear Repulsion Energy =         344.27059130 hartrees
 There are       30 alpha and       30 beta electrons

 Q-Chem warning in module forms1/BasisType.C, line 2236:

 You are not using the predefined 5D/6D in this basis set.

 Requested basis set is cc-pVTZ
 There are 120 shells and 326 basis functions

 Total QAlloc Memory Limit 110000 MB
 Mega-Array Size       188 MB
 MEM_STATIC part       192 MB
 Discretize the solute cavity surface with Lebedev spheres
	Using 110 Lebedev grid points for each H atom
	Using 194 Lebedev grid points for other atoms
	Atomic van der Waals radii will be scaled by 1.20
 Remove points where switching function is < 1.0e-08
 Keep 1062 surface tesserae and discard 1176 interior tesserae
 Molecular Surface Area = 159.451 Angst**2

                       Distance Matrix (Angstroms)
             C (  1)   C (  2)   C (  3)   H (  4)   C (  5)   S (  6)
   C (  2)  1.398029
   C (  3)  2.377923  1.421026
   H (  4)  2.192658  1.100346  2.218091
   C (  5)  2.543063  2.346347  1.406622  3.383653
   S (  6)  1.760310  2.587400  2.612799  3.650445  1.758541
   C (  7)  3.796972  2.573094  1.503511  2.858636  2.577339  4.077403
   H (  8)  4.063575  2.684088  2.163788  2.514379  3.477329  4.750003
   H (  9)  4.437665  3.310733  2.175509  3.630130  2.929258  4.517189
   H ( 10)  4.437616  3.310693  2.175429  3.630083  2.929206  4.517161
   C ( 11)  1.440700  2.553131  3.769096  2.882548  3.956596  2.808868
   H ( 12)  1.800338  2.372089  3.730573  2.340549  4.238459  3.440390
   H ( 13)  2.295640  3.166705  4.464082  3.232714  4.777554  3.691652
   H ( 14)  2.176478  3.334294  4.464919  3.675234  4.505249  3.181337
   H ( 15)  3.609423  3.410867  2.263995  4.406406  1.096582  2.496273
             C (  7)   H (  8)   H (  9)   H ( 10)   C ( 11)   H ( 12)
   H (  8)  1.107208
   H (  9)  1.110090  1.787733
   H ( 10)  1.110032  1.787672  1.784800
   C ( 11)  5.109105  5.193455  5.767506  5.767443
   H ( 12)  4.885866  4.777952  5.671108  5.498500  1.080030
   H ( 13)  5.701407  5.651439  6.276488  6.475034  1.080007  1.527523
   H ( 14)  5.826181  5.944725  6.569989  6.343196  1.079945  1.527553
   H ( 15)  2.977332  4.030417  3.076228  3.076210  4.995043  5.318554
             H ( 13)   H ( 14)
   H ( 14)  1.775961
   H ( 15)  5.822939  5.482521
 
 Requested basis set is rimp2-cc-pVTZ
 There are 250 shells and 848 basis functions
 A cutoff of  1.0D-10 yielded   6185 shell pairs
 There are     45293 function pairs (     58255 Cartesian)
 Smallest overlap matrix eigenvalue = 9.53E-05

 Scale SEOQF with 1.000000e+00/1.000000e-01/1.000000e-01

 Standard Electronic Orientation quadrupole field applied
 Nucleus-field energy     =     0.0000000035 hartrees
 Guess from superposition of atomic densities
 Warning:  Energy on first SCF cycle will be non-variational
 SAD guess density has 60.000000 electrons

 -----------------------------------------------------------------------
  General SCF calculation program by
  Eric Jon Sundstrom, Paul Horn, Yuezhi Mao, Dmitri Zuev, Alec White,
  David Stuck, Shaama M.S., Shane Yost, Joonho Lee, David Small,
  Daniel Levine, Susi Lehtola, Hugh Burton, Evgeny Epifanovsky,
  Bang C. Huynh
 -----------------------------------------------------------------------
 Hartree-Fock
 A restricted SCF calculation will be
 performed using DIIS
 SCF converges when DIIS error is below 1.0e-06
 ---------------------------------------
  Cycle       Energy         DIIS error
 ---------------------------------------
    1    -632.1032241218      2.92e-02  
    2    -629.3456951063      1.92e-03  
    3    -629.4152564977      6.48e-04  
    4    -629.4223118094      3.35e-04  
    5    -629.4242441989      6.18e-05  
    6    -629.4243713222      2.47e-05  
    7    -629.4244019542      1.12e-05  
    8    -629.4244107617      4.91e-06  
    9    -629.4244122002      1.67e-06  
   10    -629.4244123656      5.26e-07  Convergence criterion met
 ---------------------------------------
 SCF time:   CPU 143.90s  wall 144.00s 

************** Final PCM Free Energy Summary **************
 G_electrostatic  =      -0.00552697 hartree =      -3.46822482 kcal/mol
 G_cavitation     =       0.00000000 hartree =       0.00000000 kcal/mol
 G_dispersion     =       0.00000000 hartree =       0.00000000 kcal/mol
 G_repulsion      =       0.00000000 hartree =       0.00000000 kcal/mol
 --------------------------------------------------
 Non-electrostatic Free Energy =       0.00000000 hartree =       0.00000000 kcal/mol
 Total                         =      -0.00552697 hartree =      -3.46822482 kcal/mol
 --------------------------------------------------
 SCF Energy (H0 + V/2)                       =    -629.42441237 
 Solute Internal Energy (H0)                 =    -629.41888540 
 Total Free Energy (H0 + V/2 + non-elec)     =    -629.42441237 hartree
                                             = -394969.78003802 kcal/mol
***********************************************************

 SCF   energy in the final basis set =     -629.4244123656
 Total energy in the final basis set =     -629.4244123656


 --------------------------------------------------------------
  Generalized many-body perturbation theory program
  by Joonho Lee, Fazle Rob, Xintian Feng, Evgeny Epifanovsky

 No regularization used 
 (reg. param. = 0.0000e+00)
  (P|Q)^-1/2 Time:  CPU 0.48 s  wall 0.48 s

 In RI-MP2 calculation: 
 # of frozen core orbitals: 11

 Components of the RIMP2 correlation energy:
        aaaa    correlation energy =        -0.1455819976 a.u.
        abab    correlation energy =        -0.8863768222 a.u.
        bbbb    correlation energy =        -0.1455819976 a.u.
        non-Brillouin singles      =        -0.0000000000 a.u.
        total same-spin energy     =        -0.2911639951 a.u.
        total opposite-spin energy =        -0.8863768222 a.u.

 Total  RIMP2   correlation energy =        -1.1775408173 a.u.
        RIMP2         total energy =      -630.6019531829 a.u.

 RI-MP2 Energy Time:  CPU 11.02 s  wall 11.06 s
 
 --------------------------------------------------------------
 
                    Orbital Energies (a.u.)
 --------------------------------------------------------------
 
 Alpha MOs
 -- Occupied --
-91.9762 -11.2795 -11.2550 -11.2471 -11.2311 -11.2272 -11.2173  -8.9762
 -6.6571  -6.6566  -6.6560  -1.1607  -1.0543  -0.9992  -0.9401  -0.8841
 -0.7424  -0.7228  -0.6494  -0.5902  -0.5760  -0.5656  -0.5603  -0.5426
 -0.5096  -0.4872  -0.4673  -0.4430  -0.3375  -0.2997
 -- Virtual --
  0.1061   0.1448   0.1498   0.1763   0.1824   0.1899   0.2076   0.2240
  0.2351   0.2434   0.2500   0.2699   0.3001   0.3188   0.3443   0.3547
  0.3804   0.3928   0.4100   0.4159   0.4326   0.4558   0.4704   0.4914
  0.4954   0.5021   0.5203   0.5321   0.5380   0.5512   0.5640   0.5975
  0.6016   0.6049   0.6209   0.6236   0.6410   0.6412   0.6438   0.6547
  0.6564   0.6643   0.6809   0.7065   0.7346   0.7497   0.7654   0.7814
  0.8037   0.8248   0.8452   0.8497   0.8690   0.8919   0.9251   0.9311
  0.9520   0.9572   0.9884   1.0121   1.0315   1.0557   1.0631   1.0746
  1.0811   1.0867   1.1088   1.1539   1.1613   1.1807   1.1959   1.2040
  1.2237   1.2312   1.2544   1.2568   1.2630   1.2792   1.3129   1.3406
  1.3513   1.3790   1.3954   1.4031   1.4258   1.4436   1.4612   1.4832
  1.4914   1.5224   1.5327   1.5351   1.5479   1.5662   1.5706   1.5952
  1.6024   1.6272   1.6641   1.6760   1.6915   1.6963   1.7159   1.7462
  1.7567   1.7944   1.8041   1.8231   1.8878   1.9083   1.9245   1.9424
  1.9965   2.0446   2.0938   2.1407   2.1852   2.2000   2.2195   2.2377
  2.2642   2.2994   2.3650   2.4147   2.4625   2.4957   2.5247   2.5627
  2.5779   2.6054   2.6406   2.6490   2.6815   2.6929   2.7130   2.7283
  2.7531   2.7615   2.7637   2.7838   2.8248   2.8484   2.8634   2.8900
  2.8970   2.9193   2.9450   2.9546   2.9691   3.0014   3.0361   3.0458
  3.0816   3.1135   3.1268   3.1447   3.1501   3.1593   3.1808   3.1918
  3.2308   3.2396   3.2543   3.2802   3.2917   3.3158   3.3180   3.3310
  3.3377   3.3617   3.3785   3.3914   3.4084   3.4164   3.4336   3.4381
  3.4520   3.4679   3.4786   3.4830   3.5019   3.5266   3.5385   3.5670
  3.5831   3.5967   3.6060   3.6219   3.6220   3.6417   3.6739   3.6772
  3.6870   3.6984   3.7307   3.7468   3.7730   3.7814   3.7951   3.7984
  3.8063   3.8354   3.8633   3.8730   3.8848   3.9092   3.9311   3.9605
  3.9732   3.9904   4.0040   4.0306   4.0525   4.0597   4.0945   4.1039
  4.1277   4.1375   4.1511   4.1598   4.2178   4.2201   4.2252   4.2379
  4.2824   4.2879   4.3103   4.3267   4.3423   4.3695   4.3999   4.4049
  4.4123   4.4255   4.4397   4.4605   4.4719   4.5197   4.5631   4.5814
  4.5954   4.6295   4.6358   4.6768   4.7259   4.7361   4.7865   4.8030
  4.8101   4.8290   4.8627   4.8854   4.9311   4.9495   5.0918   5.0930
  5.1069   5.1405   5.1910   5.2037   5.2502   5.2606   5.2831   5.3196
  5.3652   5.4051   5.4126   5.4447   5.4740   5.4971   5.5570   5.5654
  5.5928   5.6250   5.6364   5.6968   5.7006   5.8262   5.8510   5.8679
  5.8950   6.0461   6.0677   6.1275   6.2272   6.2549   6.3005   6.3641
  6.4665   6.5180   9.1992  11.4174  12.9470  13.8923  14.1833  14.4877
 --------------------------------------------------------------
 
          Ground-State Mulliken Net Atomic Charges

     Atom                 Charge (a.u.)
  ----------------------------------------
      1 C                     0.066141
      2 C                    -0.271775
      3 C                     0.031974
      4 H                     0.177552
      5 C                    -0.257574
      6 S                    -0.007179
      7 C                    -0.274444
      8 H                     0.101176
      9 H                     0.107290
     10 H                     0.107132
     11 C                    -0.379459
     12 H                     0.126804
     13 H                     0.143878
     14 H                     0.135525
     15 H                     0.192961
  ----------------------------------------
  Sum of atomic charges =     0.000000

 -----------------------------------------------------------------
                    Cartesian Multipole Moments
 -----------------------------------------------------------------
    Charge (ESU x 10^10)
                -0.0000
    Dipole Moment (Debye)
         X       0.3506      Y      -0.2245      Z       2.0460
       Tot       2.0880
    Quadrupole Moments (Debye-Ang)
        XX     -53.8667     XY      -0.7103     YY     -42.1304
        XZ      -0.2703     YZ      -0.9847     ZZ     -48.8240
    Octopole Moments (Debye-Ang^2)
       XXX      -0.3783    XXY     -32.4968    XYY       0.7976
       YYY     -79.5125    XXZ      -2.1318    XYZ       1.0181
       YYZ      -1.7924    XZZ      -0.1665    YZZ     -24.3686
       ZZZ       0.7608
    Hexadecapole Moments (Debye-Ang^3)
      XXXX     -78.7120   XXXY       1.6283   XXYY    -158.6532
      XYYY       0.6633   YYYY    -813.6671   XXXZ      -0.1346
      XXYZ     -29.1660   XYYZ      -3.2966   YYYZ    -108.7333
      XXZZ    -101.4016   XYZZ       0.6151   YYZZ    -216.0470
      XZZZ       0.6748   YZZZ     -97.9437   ZZZZ    -483.5463
 -----------------------------------------------------------------
 Total job time:  157.03s(wall), 155.27s(cpu) 
 Sun Jul 10 09:16:41 2022

        *************************************************************
        *                                                           *
        *  Thank you very much for using Q-Chem.  Have a nice day.  *
        *                                                           *
        *************************************************************


remove work dirs ./qchem2424763.0 -- ./qchem2424763.-1
rm -rf ./qchem2424763
You are running Q-Chem version: 5.4.0

#
# job setting
#
local host:  exp-1-33
current dir: /expanse/lustre/scratch/theleonzhang/temp_project/Hydrogenated_Impropers_Test
input file:  Methylthiophene_Phi_0_Theta_240_Methylthiophene_Hydrogenated_Improper.qcin
output file: 
nprocs     : 0
nthreads   : 1
#
# qchem installation setting
#
QC:          /cm/shared/apps/spack/cpu/opt/spack/linux-centos8-zen2/gcc-10.2.0/qchem-5.4-akfmr7b3t57bfs6qan3padb2wnb2i7cl
QCAUX:       /cm/shared/apps/spack/cpu/opt/spack/linux-centos8-zen2/gcc-10.2.0/qchem-5.4-akfmr7b3t57bfs6qan3padb2wnb2i7cl/qcaux
QCPROG:      /cm/shared/apps/spack/cpu/opt/spack/linux-centos8-zen2/gcc-10.2.0/qchem-5.4-akfmr7b3t57bfs6qan3padb2wnb2i7cl/exe/qcprog.exe_s
QCPROG_S:    /cm/shared/apps/spack/cpu/opt/spack/linux-centos8-zen2/gcc-10.2.0/qchem-5.4-akfmr7b3t57bfs6qan3padb2wnb2i7cl/exe/qcprog.exe_s
PARALLEL:    -DSERIAL
QCMPI:       mpich
#
# qchem directory setting
#
qcrun:       qchem2105512
QCSCRATCH:   .
QCLOCALSCR:  
QCTMPDIR:    .
QCFILEPREF:  ./qchem2105512
QCSAVEDIR:   
workdirs:    ./qchem2105512
workdir0:    ./qchem2105512
partmpdirs =  
#
# parallel setting
#
QCRSH:           ssh
QCMPI:           mpich
QCMPIRUN:        /cm/shared/apps/spack/cpu/opt/spack/linux-centos8-zen2/gcc-10.2.0/qchem-5.4-akfmr7b3t57bfs6qan3padb2wnb2i7cl/bin/mpi/mpirun_qchem
QCMACHINEFILE:   ./qchem2105512/hostfile

#
# env setting
#
exported envs:   QC QCAUX QCSCRATCH QCRUNNAME QCFILEPREF QCPROG QCPROG_S GUIFILE

Running Job 1 of 1 Methylthiophene_Phi_0_Theta_240_Methylthiophene_Hydrogenated_Improper.qcin
qchem Methylthiophene_Phi_0_Theta_240_Methylthiophene_Hydrogenated_Improper.qcin_2105512.0 ./qchem2105512/ 0
/cm/shared/apps/spack/cpu/opt/spack/linux-centos8-zen2/gcc-10.2.0/qchem-5.4-akfmr7b3t57bfs6qan3padb2wnb2i7cl/exe/qcprog.exe_s Methylthiophene_Phi_0_Theta_240_Methylthiophene_Hydrogenated_Improper.qcin_2105512.0 ./qchem2105512/
                  Welcome to Q-Chem
     A Quantum Leap Into The Future Of Chemistry


 Q-Chem 5.4, Q-Chem, Inc., Pleasanton, CA (2021)

 License issued to: University of California, San Diego (site)

 E. Epifanovsky,  A. T. B. Gilbert,  Xintian Feng,  Joonho Lee,  Yuezhi Mao,  
 N. Mardirossian,  P. Pokhilko,  A. White,  M. Wormit,  M. P. Coons,  
 A. L. Dempwolff,  Zhengting Gan,  D. Hait,  P. R. Horn,  L. D. Jacobson,  
 I. Kaliman,  J. Kussmann,  A. W. Lange,  Ka Un Lao,  D. S. Levine,  Jie Liu,  
 S. C. McKenzie,  A. F. Morrison,  K. Nanda,  F. Plasser,  D. R. Rehn,  
 M. L. Vidal,  Zhi-Qiang You,  Ying Zhu,  B. Alam,  B. Albrecht,  
 A. Aldossary,  E. Alguire,  J. H. Andersen,  D. Barton,  K. Begam,  A. Behn,  
 Y. A. Bernard,  E. J. Berquist,  H. Burton,  A. Carreras,  K. Carter-Fenk,  
 R. Chakraborty,  A. D. Chien,  K. D. Closser,  V. Cofer-Shabica,  
 S. Dasgupta,  Jia Deng,  M. de Wergifosse,  M. Diedenhofen,  Hainam Do,  
 S. Ehlert,  Po-Tung Fang,  S. Fatehi,  Qingguo Feng,  J. Gayvert,  
 Qinghui Ge,  G. Gidofalvi,  M. Goldey,  J. Gomes,  C. Gonzalez-Espinoza,  
 S. Gulania,  A. Gunina,  M. W. D. Hanson-Heine,  P. H. P. Harbach,  
 A. W. Hauser,  M. F. Herbst,  M. Hernandez Vera,  M. Hodecker,  
 Z. C. Holden,  S. Houck,  Xunkun Huang,  Kerwin Hui,  B. C. Huynh,  
 M. Ivanov,  Hyunjun Ji,  Hanjie Jiang,  B. Kaduk,  S. Kaehler,  
 K. Khistyaev,  Jaehoon Kim,  P. Klunzinger,  Z. Koczor-Benda,  
 Joong Hoon Koh,  D. Kosenkov,  L. Koulias,  T. Kowalczyk,  C. M. Krauter,  
 K. Kue,  A. Kunitsa,  T. Kus,  A. Landau,  K. V. Lawler,  D. Lefrancois,  
 S. Lehtola,  Rain Li,  Yi-Pei Li,  Jiashu Liang,  M. Liebenthal,  
 Hung-Hsuan Lin,  You-Sheng Lin,  Fenglai Liu,  Kuan-Yu Liu,  
 M. Loipersberger,  A. Luenser,  A. Manjanath,  P. Manohar,  E. Mansoor,  
 S. F. Manzer,  Shan-Ping Mao,  A. V. Marenich,  T. Markovich,  S. Mason,  
 S. A. Maurer,  P. F. McLaughlin,  M. F. S. J. Menger,  J.-M. Mewes,  
 S. A. Mewes,  P. Morgante,  J. W. Mullinax,  T. S. Nguyen-Beck,  
 K. J. Oosterbaan,  G. Paran,  Alexander C. Paul,  Suranjan K. Paul,  
 F. Pavosevic,  Zheng Pei,  S. Prager,  E. I. Proynov,  E. Ramos,  B. Rana,  
 A. E. Rask,  A. Rettig,  R. M. Richard,  F. Rob,  E. Rossomme,  T. Scheele,  
 M. Scheurer,  M. Schneider,  N. Sergueev,  S. M. Sharada,  W. Skomorowski,  
 D. W. Small,  C. J. Stein,  Yu-Chuan Su,  E. J. Sundstrom,  Zhen Tao,  
 J. Thirman,  T. Tsuchimochi,  N. M. Tubman,  S. P. Veccham,  O. Vydrov,  
 J. Wenzel,  J. Witte,  A. Yamada,  Kun Yao,  S. Yeganeh,  S. R. Yost,  
 A. Zech,  Igor Ying Zhang,  Xing Zhang,  Yu Zhang,  D. Zuev,  
 A. Aspuru-Guzik,  A. T. Bell,  N. A. Besley,  K. B. Bravaya,  B. R. Brooks,  
 D. Casanova,  Jeng-Da Chai,  S. Coriani,  C. J. Cramer,  
 A. E. DePrince, III,  R. A. DiStasio Jr.,  A. Dreuw,  B. D. Dunietz,  
 T. R. Furlani,  W. A. Goddard III,  S. Grimme,  S. Hammes-Schiffer,  
 T. Head-Gordon,  W. J. Hehre,  Chao-Ping Hsu,  T.-C. Jagau,  Yousung Jung,  
 A. Klamt,  Jing Kong,  D. S. Lambrecht,  WanZhen Liang,  N. J. Mayhall,  
 C. W. McCurdy,  J. B. Neaton,  C. Ochsenfeld,  J. A. Parkhill,  R. Peverati,  
 V. A. Rassolov,  Yihan Shao,  L. V. Slipchenko,  T. Stauch,  R. P. Steele,  
 J. E. Subotnik,  A. J. W. Thom,  A. Tkatchenko,  D. G. Truhlar,  
 T. Van Voorhis,  T. A. Wesolowski,  K. B. Whaley,  H. L. Woodcock III,  
 P. M. Zimmerman,  S. Faraji,  P. M. W. Gill,  M. Head-Gordon,  
 J. M. Herbert,  A. I. Krylov

 Contributors to earlier versions of Q-Chem not listed above: 
 R. D. Adamson,  B. Austin,  R. Baer,  J. Baker,  G. J. O. Beran,  
 K. Brandhorst,  S. T. Brown,  E. F. C. Byrd,  A. K. Chakraborty,  
 G. K. L. Chan,  Chun-Min Chang,  Yunqing Chen,  C.-L. Cheng,  
 Siu Hung Chien,  D. M. Chipman,  D. L. Crittenden,  H. Dachsel,  
 R. J. Doerksen,  A. D. Dutoi,  R. G. Edgar,  J. Fosso-Tande,  
 L. Fusti-Molnar,  D. Ghosh,  A. Ghysels,  A. Golubeva-Zadorozhnaya,  
 J. Gonthier,  M. S. Gordon,  S. R. Gwaltney,  G. Hawkins,  J. E. Herr,  
 A. Heyden,  S. Hirata,  E. G. Hohenstein,  G. Kedziora,  F. J. Keil,  
 C. Kelley,  Jihan Kim,  R. A. King,  R. Z. Khaliullin,  P. P. Korambath,  
 W. Kurlancheek,  A. Laurent,  A. M. Lee,  M. S. Lee,  S. V. Levchenko,  
 Ching Yeh Lin,  D. Liotard,  E. Livshits,  R. C. Lochan,  I. Lotan,  
 L. A. Martinez-Martinez,  P. E. Maslen,  N. Nair,  D. P. O'Neill,  
 D. Neuhauser,  E. Neuscamman,  C. M. Oana,  R. Olivares-Amaya,  R. Olson,  
 T. M. Perrine,  B. Peters,  P. A. Pieniazek,  A. Prociuk,  Y. M. Rhee,  
 J. Ritchie,  M. A. Rohrdanz,  E. Rosta,  N. J. Russ,  H. F. Schaefer III,  
 M. W. Schmidt,  N. E. Schultz,  S. Sharma,  N. Shenvi,  C. D. Sherrill,  
 A. C. Simmonett,  A. Sodt,  T. Stein,  D. Stuck,  K. S. Thanthiriwatte,  
 V. Vanovschi,  L. Vogt,  Tao Wang,  A. Warshel,  M. A. Watson,  
 C. F. Williams,  Q. Wu,  X. Xu,  Jun Yang,  W. Zhang,  Yan Zhao

 Please cite Q-Chem as follows:
 Y. Shao et al., Mol. Phys. 113, 184-215 (2015)
 DOI: 10.1080/00268976.2014.952696

 Q-Chem 5.4.0 for Intel X86 EM64T Linux

 Parts of Q-Chem use Armadillo 9.800.1 (Horizon Scraper).
 http://arma.sourceforge.net/

 Q-Chem begins on Sun Jul 10 09:45:01 2022  

 Host: 
0

     Scratch files written to ./qchem2105512//
 May1621 |scratch|qcdevops|jenkins|workspace|build_RNUM    
 Processing $rem in /cm/shared/apps/spack/cpu/opt/spack/linux-centos8-zen2/gcc-10.2.0/qchem-5.4-akfmr7b3t57bfs6qan3padb2wnb2i7cl/config/preferences:
 Processing $rem in /home/theleonzhang/.qchemrc:
 Symmetry turned off for PCM/SM12/SMD calculation
 Core orbitals will be frozen

 Checking the input file for inconsistencies... 	...done.

--------------------------------------------------------------
User input:
--------------------------------------------------------------
$molecule
0 1
C	-0.002941	-0.576312	0.011118
C	-0.002941	0.287288	1.110518
C	-0.002841	1.671188	0.787818
H	-0.002941	-0.081512	2.147218
C	-0.002841	1.891888	-0.601382
S	-0.002941	0.366088	-1.475682
C	-0.002841	2.758988	1.825718
H	-0.002841	2.333288	2.847818
H	-0.895241	3.413288	1.737318
H	0.889559	3.413188	1.737318
C	-0.002941	-2.017012	0.011118
H	0.536959	-2.016712	0.946518
H	-0.712441	-2.720812	0.420618
H	0.817259	-2.535912	-0.462482
H	-0.002841	2.841088	-1.150482
$end

$rem
JOBTYPE		SP
EXCHANGE	HF
CORRELATION	pRIMP2
BASIS		cc-pvtz
METHOD		rimp2
AUX_BASIS	rimp2-cc-pvtz
SOLVENT_METHOD	PCM
PURECART	11111
SYMMETRY	false
MEM_TOTAL	110000
SCF_CONVERGENCE = 6
THRESH=10
$end



$solvent
dielectric 4.90
$end
--------------------------------------------------------------
 ----------------------------------------------------------------
             Standard Nuclear Orientation (Angstroms)
    I     Atom           X                Y                Z
 ----------------------------------------------------------------
    1      C      -0.0029410000    -0.5763120000     0.0111180000
    2      C      -0.0029410000     0.2872880000     1.1105180000
    3      C      -0.0028410000     1.6711880000     0.7878180000
    4      H      -0.0029410000    -0.0815120000     2.1472180000
    5      C      -0.0028410000     1.8918880000    -0.6013820000
    6      S      -0.0029410000     0.3660880000    -1.4756820000
    7      C      -0.0028410000     2.7589880000     1.8257180000
    8      H      -0.0028410000     2.3332880000     2.8478180000
    9      H      -0.8952410000     3.4132880000     1.7373180000
   10      H       0.8895590000     3.4131880000     1.7373180000
   11      C      -0.0029410000    -2.0170120000     0.0111180000
   12      H       0.5369590000    -2.0167120000     0.9465180000
   13      H      -0.7124410000    -2.7208120000     0.4206180000
   14      H       0.8172590000    -2.5359120000    -0.4624820000
   15      H      -0.0028410000     2.8410880000    -1.1504820000
 ----------------------------------------------------------------
 Nuclear Repulsion Energy =         344.27059130 hartrees
 There are       30 alpha and       30 beta electrons

 Q-Chem warning in module forms1/BasisType.C, line 2236:

 You are not using the predefined 5D/6D in this basis set.

 Requested basis set is cc-pVTZ
 There are 120 shells and 326 basis functions

 Total QAlloc Memory Limit 110000 MB
 Mega-Array Size       188 MB
 MEM_STATIC part       192 MB
 Discretize the solute cavity surface with Lebedev spheres
	Using 110 Lebedev grid points for each H atom
	Using 194 Lebedev grid points for other atoms
	Atomic van der Waals radii will be scaled by 1.20
 Remove points where switching function is < 1.0e-08
 Keep 1062 surface tesserae and discard 1176 interior tesserae
 Molecular Surface Area = 159.451 Angst**2

                       Distance Matrix (Angstroms)
             C (  1)   C (  2)   C (  3)   H (  4)   C (  5)   S (  6)
   C (  2)  1.398029
   C (  3)  2.377923  1.421026
   H (  4)  2.192658  1.100346  2.218091
   C (  5)  2.543063  2.346347  1.406622  3.383653
   S (  6)  1.760310  2.587400  2.612799  3.650445  1.758541
   C (  7)  3.796972  2.573094  1.503511  2.858636  2.577339  4.077403
   H (  8)  4.063575  2.684088  2.163788  2.514379  3.477329  4.750003
   H (  9)  4.437665  3.310733  2.175509  3.630130  2.929258  4.517189
   H ( 10)  4.437616  3.310693  2.175429  3.630083  2.929206  4.517161
   C ( 11)  1.440700  2.553131  3.769096  2.882548  3.956596  2.808868
   H ( 12)  1.800338  2.372089  3.730573  2.340549  4.238459  3.440390
   H ( 13)  2.295640  3.166705  4.464082  3.232714  4.777554  3.691652
   H ( 14)  2.176478  3.334294  4.464919  3.675234  4.505249  3.181337
   H ( 15)  3.609423  3.410867  2.263995  4.406406  1.096582  2.496273
             C (  7)   H (  8)   H (  9)   H ( 10)   C ( 11)   H ( 12)
   H (  8)  1.107208
   H (  9)  1.110090  1.787733
   H ( 10)  1.110032  1.787672  1.784800
   C ( 11)  5.109105  5.193455  5.767506  5.767443
   H ( 12)  4.885866  4.777952  5.671108  5.498500  1.080030
   H ( 13)  5.701407  5.651439  6.276488  6.475034  1.080007  1.527523
   H ( 14)  5.826181  5.944725  6.569989  6.343196  1.079945  1.527553
   H ( 15)  2.977332  4.030417  3.076228  3.076210  4.995043  5.318554
             H ( 13)   H ( 14)
   H ( 14)  1.775961
   H ( 15)  5.822939  5.482521
 
 Requested basis set is rimp2-cc-pVTZ
 There are 250 shells and 848 basis functions
 A cutoff of  1.0D-10 yielded   6185 shell pairs
 There are     45293 function pairs (     58255 Cartesian)
 Smallest overlap matrix eigenvalue = 9.53E-05

 Scale SEOQF with 1.000000e+00/1.000000e-01/1.000000e-01

 Standard Electronic Orientation quadrupole field applied
 Nucleus-field energy     =     0.0000000035 hartrees
 Guess from superposition of atomic densities
 Warning:  Energy on first SCF cycle will be non-variational
 SAD guess density has 60.000000 electrons

 -----------------------------------------------------------------------
  General SCF calculation program by
  Eric Jon Sundstrom, Paul Horn, Yuezhi Mao, Dmitri Zuev, Alec White,
  David Stuck, Shaama M.S., Shane Yost, Joonho Lee, David Small,
  Daniel Levine, Susi Lehtola, Hugh Burton, Evgeny Epifanovsky,
  Bang C. Huynh
 -----------------------------------------------------------------------
 Hartree-Fock
 A restricted SCF calculation will be
 performed using DIIS
 SCF converges when DIIS error is below 1.0e-06
 ---------------------------------------
  Cycle       Energy         DIIS error
 ---------------------------------------
    1    -632.1032241218      2.92e-02  
    2    -629.3456951063      1.92e-03  
    3    -629.4152564977      6.48e-04  
    4    -629.4223118094      3.35e-04  
    5    -629.4242441989      6.18e-05  
    6    -629.4243713222      2.47e-05  
    7    -629.4244019542      1.12e-05  
    8    -629.4244107617      4.91e-06  
    9    -629.4244122002      1.67e-06  
   10    -629.4244123656      5.26e-07  Convergence criterion met
 ---------------------------------------
 SCF time:   CPU 144.68s  wall 146.00s 

************** Final PCM Free Energy Summary **************
 G_electrostatic  =      -0.00552697 hartree =      -3.46822482 kcal/mol
 G_cavitation     =       0.00000000 hartree =       0.00000000 kcal/mol
 G_dispersion     =       0.00000000 hartree =       0.00000000 kcal/mol
 G_repulsion      =       0.00000000 hartree =       0.00000000 kcal/mol
 --------------------------------------------------
 Non-electrostatic Free Energy =       0.00000000 hartree =       0.00000000 kcal/mol
 Total                         =      -0.00552697 hartree =      -3.46822482 kcal/mol
 --------------------------------------------------
 SCF Energy (H0 + V/2)                       =    -629.42441237 
 Solute Internal Energy (H0)                 =    -629.41888540 
 Total Free Energy (H0 + V/2 + non-elec)     =    -629.42441237 hartree
                                             = -394969.78003802 kcal/mol
***********************************************************

 SCF   energy in the final basis set =     -629.4244123656
 Total energy in the final basis set =     -629.4244123656


 --------------------------------------------------------------
  Generalized many-body perturbation theory program
  by Joonho Lee, Fazle Rob, Xintian Feng, Evgeny Epifanovsky

 No regularization used 
 (reg. param. = 0.0000e+00)
  (P|Q)^-1/2 Time:  CPU 0.48 s  wall 0.49 s

 In RI-MP2 calculation: 
 # of frozen core orbitals: 11

 Components of the RIMP2 correlation energy:
        aaaa    correlation energy =        -0.1455819976 a.u.
        abab    correlation energy =        -0.8863768222 a.u.
        bbbb    correlation energy =        -0.1455819976 a.u.
        non-Brillouin singles      =        -0.0000000000 a.u.
        total same-spin energy     =        -0.2911639951 a.u.
        total opposite-spin energy =        -0.8863768222 a.u.

 Total  RIMP2   correlation energy =        -1.1775408173 a.u.
        RIMP2         total energy =      -630.6019531829 a.u.

 RI-MP2 Energy Time:  CPU 11.12 s  wall 11.17 s
 
 --------------------------------------------------------------
 
                    Orbital Energies (a.u.)
 --------------------------------------------------------------
 
 Alpha MOs
 -- Occupied --
-91.9762 -11.2795 -11.2550 -11.2471 -11.2311 -11.2272 -11.2173  -8.9762
 -6.6571  -6.6566  -6.6560  -1.1607  -1.0543  -0.9992  -0.9401  -0.8841
 -0.7424  -0.7228  -0.6494  -0.5902  -0.5760  -0.5656  -0.5603  -0.5426
 -0.5096  -0.4872  -0.4673  -0.4430  -0.3375  -0.2997
 -- Virtual --
  0.1061   0.1448   0.1498   0.1763   0.1824   0.1899   0.2076   0.2240
  0.2351   0.2434   0.2500   0.2699   0.3001   0.3188   0.3443   0.3547
  0.3804   0.3928   0.4100   0.4159   0.4326   0.4558   0.4704   0.4914
  0.4954   0.5021   0.5203   0.5321   0.5380   0.5512   0.5640   0.5975
  0.6016   0.6049   0.6209   0.6236   0.6410   0.6412   0.6438   0.6547
  0.6564   0.6643   0.6809   0.7065   0.7346   0.7497   0.7654   0.7814
  0.8037   0.8248   0.8452   0.8497   0.8690   0.8919   0.9251   0.9311
  0.9520   0.9572   0.9884   1.0121   1.0315   1.0557   1.0631   1.0746
  1.0811   1.0867   1.1088   1.1539   1.1613   1.1807   1.1959   1.2040
  1.2237   1.2312   1.2544   1.2568   1.2630   1.2792   1.3129   1.3406
  1.3513   1.3790   1.3954   1.4031   1.4258   1.4436   1.4612   1.4832
  1.4914   1.5224   1.5327   1.5351   1.5479   1.5662   1.5706   1.5952
  1.6024   1.6272   1.6641   1.6760   1.6915   1.6963   1.7159   1.7462
  1.7567   1.7944   1.8041   1.8231   1.8878   1.9083   1.9245   1.9424
  1.9965   2.0446   2.0938   2.1407   2.1852   2.2000   2.2195   2.2377
  2.2642   2.2994   2.3650   2.4147   2.4625   2.4957   2.5247   2.5627
  2.5779   2.6054   2.6406   2.6490   2.6815   2.6929   2.7130   2.7283
  2.7531   2.7615   2.7637   2.7838   2.8248   2.8484   2.8634   2.8900
  2.8970   2.9193   2.9450   2.9546   2.9691   3.0014   3.0361   3.0458
  3.0816   3.1135   3.1268   3.1447   3.1501   3.1593   3.1808   3.1918
  3.2308   3.2396   3.2543   3.2802   3.2917   3.3158   3.3180   3.3310
  3.3377   3.3617   3.3785   3.3914   3.4084   3.4164   3.4336   3.4381
  3.4520   3.4679   3.4786   3.4830   3.5019   3.5266   3.5385   3.5670
  3.5831   3.5967   3.6060   3.6219   3.6220   3.6417   3.6739   3.6772
  3.6870   3.6984   3.7307   3.7468   3.7730   3.7814   3.7951   3.7984
  3.8063   3.8354   3.8633   3.8730   3.8848   3.9092   3.9311   3.9605
  3.9732   3.9904   4.0040   4.0306   4.0525   4.0597   4.0945   4.1039
  4.1277   4.1375   4.1511   4.1598   4.2178   4.2201   4.2252   4.2379
  4.2824   4.2879   4.3103   4.3267   4.3423   4.3695   4.3999   4.4049
  4.4123   4.4255   4.4397   4.4605   4.4719   4.5197   4.5631   4.5814
  4.5954   4.6295   4.6358   4.6768   4.7259   4.7361   4.7865   4.8030
  4.8101   4.8290   4.8627   4.8854   4.9311   4.9495   5.0918   5.0930
  5.1069   5.1405   5.1910   5.2037   5.2502   5.2606   5.2831   5.3196
  5.3652   5.4051   5.4126   5.4447   5.4740   5.4971   5.5570   5.5654
  5.5928   5.6250   5.6364   5.6968   5.7006   5.8262   5.8510   5.8679
  5.8950   6.0461   6.0677   6.1275   6.2272   6.2549   6.3005   6.3641
  6.4665   6.5180   9.1992  11.4174  12.9470  13.8923  14.1833  14.4877
 --------------------------------------------------------------
 
          Ground-State Mulliken Net Atomic Charges

     Atom                 Charge (a.u.)
  ----------------------------------------
      1 C                     0.066141
      2 C                    -0.271775
      3 C                     0.031974
      4 H                     0.177552
      5 C                    -0.257574
      6 S                    -0.007179
      7 C                    -0.274444
      8 H                     0.101176
      9 H                     0.107290
     10 H                     0.107132
     11 C                    -0.379459
     12 H                     0.126804
     13 H                     0.143878
     14 H                     0.135525
     15 H                     0.192961
  ----------------------------------------
  Sum of atomic charges =     0.000000

 -----------------------------------------------------------------
                    Cartesian Multipole Moments
 -----------------------------------------------------------------
    Charge (ESU x 10^10)
                -0.0000
    Dipole Moment (Debye)
         X       0.3506      Y      -0.2245      Z       2.0460
       Tot       2.0880
    Quadrupole Moments (Debye-Ang)
        XX     -53.8667     XY      -0.7103     YY     -42.1304
        XZ      -0.2703     YZ      -0.9847     ZZ     -48.8240
    Octopole Moments (Debye-Ang^2)
       XXX      -0.3783    XXY     -32.4968    XYY       0.7976
       YYY     -79.5125    XXZ      -2.1318    XYZ       1.0181
       YYZ      -1.7924    XZZ      -0.1665    YZZ     -24.3686
       ZZZ       0.7608
    Hexadecapole Moments (Debye-Ang^3)
      XXXX     -78.7120   XXXY       1.6283   XXYY    -158.6532
      XYYY       0.6633   YYYY    -813.6671   XXXZ      -0.1346
      XXYZ     -29.1660   XYYZ      -3.2966   YYYZ    -108.7333
      XXZZ    -101.4016   XYZZ       0.6151   YYZZ    -216.0470
      XZZZ       0.6748   YZZZ     -97.9437   ZZZZ    -483.5463
 -----------------------------------------------------------------
 Total job time:  157.90s(wall), 156.17s(cpu) 
 Sun Jul 10 09:47:39 2022

        *************************************************************
        *                                                           *
        *  Thank you very much for using Q-Chem.  Have a nice day.  *
        *                                                           *
        *************************************************************


remove work dirs ./qchem2105512.0 -- ./qchem2105512.-1
rm -rf ./qchem2105512
