You are running Q-Chem version: 5.4.0

#
# job setting
#
local host:  exp-4-43
current dir: /expanse/lustre/scratch/theleonzhang/temp_project/Hydrogenated_Impropers_Test
input file:  Methylthiophene_Phi_60_Theta_220_Methylthiophene_Hydrogenated_Improper_Alternate.qcin
output file: 
nprocs     : 0
nthreads   : 1
#
# qchem installation setting
#
QC:          /cm/shared/apps/spack/cpu/opt/spack/linux-centos8-zen2/gcc-10.2.0/qchem-5.4-akfmr7b3t57bfs6qan3padb2wnb2i7cl
QCAUX:       /cm/shared/apps/spack/cpu/opt/spack/linux-centos8-zen2/gcc-10.2.0/qchem-5.4-akfmr7b3t57bfs6qan3padb2wnb2i7cl/qcaux
QCPROG:      /cm/shared/apps/spack/cpu/opt/spack/linux-centos8-zen2/gcc-10.2.0/qchem-5.4-akfmr7b3t57bfs6qan3padb2wnb2i7cl/exe/qcprog.exe_s
QCPROG_S:    /cm/shared/apps/spack/cpu/opt/spack/linux-centos8-zen2/gcc-10.2.0/qchem-5.4-akfmr7b3t57bfs6qan3padb2wnb2i7cl/exe/qcprog.exe_s
PARALLEL:    -DSERIAL
QCMPI:       mpich
#
# qchem directory setting
#
qcrun:       qchem2283892
QCSCRATCH:   .
QCLOCALSCR:  
QCTMPDIR:    .
QCFILEPREF:  ./qchem2283892
QCSAVEDIR:   
workdirs:    ./qchem2283892
workdir0:    ./qchem2283892
partmpdirs =  
#
# parallel setting
#
QCRSH:           ssh
QCMPI:           mpich
QCMPIRUN:        /cm/shared/apps/spack/cpu/opt/spack/linux-centos8-zen2/gcc-10.2.0/qchem-5.4-akfmr7b3t57bfs6qan3padb2wnb2i7cl/bin/mpi/mpirun_qchem
QCMACHINEFILE:   ./qchem2283892/hostfile

#
# env setting
#
exported envs:   QC QCAUX QCSCRATCH QCRUNNAME QCFILEPREF QCPROG QCPROG_S GUIFILE

Running Job 1 of 1 Methylthiophene_Phi_60_Theta_220_Methylthiophene_Hydrogenated_Improper_Alternate.qcin
qchem Methylthiophene_Phi_60_Theta_220_Methylthiophene_Hydrogenated_Improper_Alternate.qcin_2283892.0 ./qchem2283892/ 0
/cm/shared/apps/spack/cpu/opt/spack/linux-centos8-zen2/gcc-10.2.0/qchem-5.4-akfmr7b3t57bfs6qan3padb2wnb2i7cl/exe/qcprog.exe_s Methylthiophene_Phi_60_Theta_220_Methylthiophene_Hydrogenated_Improper_Alternate.qcin_2283892.0 ./qchem2283892/
                  Welcome to Q-Chem
     A Quantum Leap Into The Future Of Chemistry


 Q-Chem 5.4, Q-Chem, Inc., Pleasanton, CA (2021)

 License issued to: University of California, San Diego (site)

 E. Epifanovsky,  A. T. B. Gilbert,  Xintian Feng,  Joonho Lee,  Yuezhi Mao,  
 N. Mardirossian,  P. Pokhilko,  A. White,  M. Wormit,  M. P. Coons,  
 A. L. Dempwolff,  Zhengting Gan,  D. Hait,  P. R. Horn,  L. D. Jacobson,  
 I. Kaliman,  J. Kussmann,  A. W. Lange,  Ka Un Lao,  D. S. Levine,  Jie Liu,  
 S. C. McKenzie,  A. F. Morrison,  K. Nanda,  F. Plasser,  D. R. Rehn,  
 M. L. Vidal,  Zhi-Qiang You,  Ying Zhu,  B. Alam,  B. Albrecht,  
 A. Aldossary,  E. Alguire,  J. H. Andersen,  D. Barton,  K. Begam,  A. Behn,  
 Y. A. Bernard,  E. J. Berquist,  H. Burton,  A. Carreras,  K. Carter-Fenk,  
 R. Chakraborty,  A. D. Chien,  K. D. Closser,  V. Cofer-Shabica,  
 S. Dasgupta,  Jia Deng,  M. de Wergifosse,  M. Diedenhofen,  Hainam Do,  
 S. Ehlert,  Po-Tung Fang,  S. Fatehi,  Qingguo Feng,  J. Gayvert,  
 Qinghui Ge,  G. Gidofalvi,  M. Goldey,  J. Gomes,  C. Gonzalez-Espinoza,  
 S. Gulania,  A. Gunina,  M. W. D. Hanson-Heine,  P. H. P. Harbach,  
 A. W. Hauser,  M. F. Herbst,  M. Hernandez Vera,  M. Hodecker,  
 Z. C. Holden,  S. Houck,  Xunkun Huang,  Kerwin Hui,  B. C. Huynh,  
 M. Ivanov,  Hyunjun Ji,  Hanjie Jiang,  B. Kaduk,  S. Kaehler,  
 K. Khistyaev,  Jaehoon Kim,  P. Klunzinger,  Z. Koczor-Benda,  
 Joong Hoon Koh,  D. Kosenkov,  L. Koulias,  T. Kowalczyk,  C. M. Krauter,  
 K. Kue,  A. Kunitsa,  T. Kus,  A. Landau,  K. V. Lawler,  D. Lefrancois,  
 S. Lehtola,  Rain Li,  Yi-Pei Li,  Jiashu Liang,  M. Liebenthal,  
 Hung-Hsuan Lin,  You-Sheng Lin,  Fenglai Liu,  Kuan-Yu Liu,  
 M. Loipersberger,  A. Luenser,  A. Manjanath,  P. Manohar,  E. Mansoor,  
 S. F. Manzer,  Shan-Ping Mao,  A. V. Marenich,  T. Markovich,  S. Mason,  
 S. A. Maurer,  P. F. McLaughlin,  M. F. S. J. Menger,  J.-M. Mewes,  
 S. A. Mewes,  P. Morgante,  J. W. Mullinax,  T. S. Nguyen-Beck,  
 K. J. Oosterbaan,  G. Paran,  Alexander C. Paul,  Suranjan K. Paul,  
 F. Pavosevic,  Zheng Pei,  S. Prager,  E. I. Proynov,  E. Ramos,  B. Rana,  
 A. E. Rask,  A. Rettig,  R. M. Richard,  F. Rob,  E. Rossomme,  T. Scheele,  
 M. Scheurer,  M. Schneider,  N. Sergueev,  S. M. Sharada,  W. Skomorowski,  
 D. W. Small,  C. J. Stein,  Yu-Chuan Su,  E. J. Sundstrom,  Zhen Tao,  
 J. Thirman,  T. Tsuchimochi,  N. M. Tubman,  S. P. Veccham,  O. Vydrov,  
 J. Wenzel,  J. Witte,  A. Yamada,  Kun Yao,  S. Yeganeh,  S. R. Yost,  
 A. Zech,  Igor Ying Zhang,  Xing Zhang,  Yu Zhang,  D. Zuev,  
 A. Aspuru-Guzik,  A. T. Bell,  N. A. Besley,  K. B. Bravaya,  B. R. Brooks,  
 D. Casanova,  Jeng-Da Chai,  S. Coriani,  C. J. Cramer,  
 A. E. DePrince, III,  R. A. DiStasio Jr.,  A. Dreuw,  B. D. Dunietz,  
 T. R. Furlani,  W. A. Goddard III,  S. Grimme,  S. Hammes-Schiffer,  
 T. Head-Gordon,  W. J. Hehre,  Chao-Ping Hsu,  T.-C. Jagau,  Yousung Jung,  
 A. Klamt,  Jing Kong,  D. S. Lambrecht,  WanZhen Liang,  N. J. Mayhall,  
 C. W. McCurdy,  J. B. Neaton,  C. Ochsenfeld,  J. A. Parkhill,  R. Peverati,  
 V. A. Rassolov,  Yihan Shao,  L. V. Slipchenko,  T. Stauch,  R. P. Steele,  
 J. E. Subotnik,  A. J. W. Thom,  A. Tkatchenko,  D. G. Truhlar,  
 T. Van Voorhis,  T. A. Wesolowski,  K. B. Whaley,  H. L. Woodcock III,  
 P. M. Zimmerman,  S. Faraji,  P. M. W. Gill,  M. Head-Gordon,  
 J. M. Herbert,  A. I. Krylov

 Contributors to earlier versions of Q-Chem not listed above: 
 R. D. Adamson,  B. Austin,  R. Baer,  J. Baker,  G. J. O. Beran,  
 K. Brandhorst,  S. T. Brown,  E. F. C. Byrd,  A. K. Chakraborty,  
 G. K. L. Chan,  Chun-Min Chang,  Yunqing Chen,  C.-L. Cheng,  
 Siu Hung Chien,  D. M. Chipman,  D. L. Crittenden,  H. Dachsel,  
 R. J. Doerksen,  A. D. Dutoi,  R. G. Edgar,  J. Fosso-Tande,  
 L. Fusti-Molnar,  D. Ghosh,  A. Ghysels,  A. Golubeva-Zadorozhnaya,  
 J. Gonthier,  M. S. Gordon,  S. R. Gwaltney,  G. Hawkins,  J. E. Herr,  
 A. Heyden,  S. Hirata,  E. G. Hohenstein,  G. Kedziora,  F. J. Keil,  
 C. Kelley,  Jihan Kim,  R. A. King,  R. Z. Khaliullin,  P. P. Korambath,  
 W. Kurlancheek,  A. Laurent,  A. M. Lee,  M. S. Lee,  S. V. Levchenko,  
 Ching Yeh Lin,  D. Liotard,  E. Livshits,  R. C. Lochan,  I. Lotan,  
 L. A. Martinez-Martinez,  P. E. Maslen,  N. Nair,  D. P. O'Neill,  
 D. Neuhauser,  E. Neuscamman,  C. M. Oana,  R. Olivares-Amaya,  R. Olson,  
 T. M. Perrine,  B. Peters,  P. A. Pieniazek,  A. Prociuk,  Y. M. Rhee,  
 J. Ritchie,  M. A. Rohrdanz,  E. Rosta,  N. J. Russ,  H. F. Schaefer III,  
 M. W. Schmidt,  N. E. Schultz,  S. Sharma,  N. Shenvi,  C. D. Sherrill,  
 A. C. Simmonett,  A. Sodt,  T. Stein,  D. Stuck,  K. S. Thanthiriwatte,  
 V. Vanovschi,  L. Vogt,  Tao Wang,  A. Warshel,  M. A. Watson,  
 C. F. Williams,  Q. Wu,  X. Xu,  Jun Yang,  W. Zhang,  Yan Zhao

 Please cite Q-Chem as follows:
 Y. Shao et al., Mol. Phys. 113, 184-215 (2015)
 DOI: 10.1080/00268976.2014.952696

 Q-Chem 5.4.0 for Intel X86 EM64T Linux

 Parts of Q-Chem use Armadillo 9.800.1 (Horizon Scraper).
 http://arma.sourceforge.net/

 Q-Chem begins on Sun Jul 10 10:40:39 2022  

 Host: 
0

     Scratch files written to ./qchem2283892//
 May1621 |scratch|qcdevops|jenkins|workspace|build_RNUM    
 Processing $rem in /cm/shared/apps/spack/cpu/opt/spack/linux-centos8-zen2/gcc-10.2.0/qchem-5.4-akfmr7b3t57bfs6qan3padb2wnb2i7cl/config/preferences:
 Processing $rem in /home/theleonzhang/.qchemrc:
 Symmetry turned off for PCM/SM12/SMD calculation
 Core orbitals will be frozen

 Checking the input file for inconsistencies... 	...done.

--------------------------------------------------------------
User input:
--------------------------------------------------------------
$molecule
0 1
C	-0.591556	-0.237129	0.012353
C	0.156344	0.194671	1.111753
C	1.354844	0.886571	0.789053
H	-0.163056	0.010271	2.148453
C	1.545944	0.996871	-0.600147
S	0.224644	0.234071	-1.474447
C	2.296944	1.430471	1.826953
H	1.928244	1.217571	2.849053
H	2.417344	2.530371	1.738553
H	3.309744	0.984671	1.738553
C	-0.591556	-1.677829	0.012353
H	0.235744	-1.677529	0.706653
H	-1.118156	-2.381629	0.639853
H	0.017244	-2.196729	-0.713247
H	2.368044	1.471471	-1.149247
$end

$rem
JOBTYPE		SP
EXCHANGE	HF
CORRELATION	pRIMP2
BASIS		cc-pvtz
METHOD		rimp2
AUX_BASIS	rimp2-cc-pvtz
SOLVENT_METHOD	PCM
PURECART	11111
SYMMETRY	false
MEM_TOTAL	110000
SCF_CONVERGENCE = 6
THRESH=10
$end



$solvent
dielectric 4.90
$end
--------------------------------------------------------------
 ----------------------------------------------------------------
             Standard Nuclear Orientation (Angstroms)
    I     Atom           X                Y                Z
 ----------------------------------------------------------------
    1      C      -0.5915560000    -0.2371290000     0.0123530000
    2      C       0.1563440000     0.1946710000     1.1117530000
    3      C       1.3548440000     0.8865710000     0.7890530000
    4      H      -0.1630560000     0.0102710000     2.1484530000
    5      C       1.5459440000     0.9968710000    -0.6001470000
    6      S       0.2246440000     0.2340710000    -1.4744470000
    7      C       2.2969440000     1.4304710000     1.8269530000
    8      H       1.9282440000     1.2175710000     2.8490530000
    9      H       2.4173440000     2.5303710000     1.7385530000
   10      H       3.3097440000     0.9846710000     1.7385530000
   11      C      -0.5915560000    -1.6778290000     0.0123530000
   12      H       0.2357440000    -1.6775290000     0.7066530000
   13      H      -1.1181560000    -2.3816290000     0.6398530000
   14      H       0.0172440000    -2.1967290000    -0.7132470000
   15      H       2.3680440000     1.4714710000    -1.1492470000
 ----------------------------------------------------------------
 Nuclear Repulsion Energy =         352.08312659 hartrees
 There are       30 alpha and       30 beta electrons

 Q-Chem warning in module forms1/BasisType.C, line 2236:

 You are not using the predefined 5D/6D in this basis set.

 Requested basis set is cc-pVTZ
 There are 120 shells and 326 basis functions

 Total QAlloc Memory Limit 110000 MB
 Mega-Array Size       188 MB
 MEM_STATIC part       192 MB
 Discretize the solute cavity surface with Lebedev spheres
	Using 110 Lebedev grid points for each H atom
	Using 194 Lebedev grid points for other atoms
	Atomic van der Waals radii will be scaled by 1.20
 Remove points where switching function is < 1.0e-08
 Keep 1029 surface tesserae and discard 1209 interior tesserae
 Molecular Surface Area = 155.384 Angst**2

                       Distance Matrix (Angstroms)
             C (  1)   C (  2)   C (  3)   H (  4)   C (  5)   S (  6)
   C (  2)  1.398029
   C (  3)  2.377906  1.421008
   H (  4)  2.192656  1.100348  2.218083
   C (  5)  2.542994  2.346298  1.406614  3.383617
   S (  6)  1.760337  2.587402  2.612765  3.650452  1.758436
   C (  7)  3.796985  2.573107  1.503535  2.858659  2.577368  4.077382
   H (  8)  4.063547  2.684058  2.163781  2.514349  3.477333  4.749966
   H (  9)  4.437601  3.310664  2.175439  3.630067  2.929245  4.517111
   H ( 10)  4.437646  3.310726  2.175502  3.630126  2.929276  4.517146
   C ( 11)  1.440700  2.296582  3.311779  2.756124  3.478230  2.555801
   H ( 12)  1.800342  1.917171  2.798890  2.255326  3.252194  2.900265
   H ( 13)  2.295636  2.912793  4.101112  2.984841  4.477643  3.621500
   H ( 14)  2.176503  3.011439  3.681415  3.618381  3.542428  2.555627
   H ( 15)  3.609413  3.410859  2.263998  4.406404  1.096633  2.496213
             C (  7)   H (  8)   H (  9)   H ( 10)   C ( 11)   H ( 12)
   H (  8)  1.107228
   H (  9)  1.109996  1.787700
   H ( 10)  1.110097  1.787735  1.784815
   C ( 11)  4.614947  4.772798  5.453640  5.028799
   H ( 12)  3.894006  3.979452  4.850837  4.195426  1.080036
   H ( 13)  5.253972  5.207241  6.150987  5.669693  1.079999  1.527503
   H ( 14)  4.980585  5.291441  5.841000  5.193572  1.079995  1.527556
   H ( 15)  2.977331  4.030421  3.076213  3.076225  4.475113  4.231698
             H ( 13)   H ( 14)
   H ( 14)  1.776007
   H ( 15)  5.495530  4.378590
 
 Requested basis set is rimp2-cc-pVTZ
 There are 250 shells and 848 basis functions
 A cutoff of  1.0D-10 yielded   6412 shell pairs
 There are     47172 function pairs (     60633 Cartesian)
 Smallest overlap matrix eigenvalue = 1.26E-04

 Scale SEOQF with 1.000000e-01/1.000000e-01/1.000000e-01

 Standard Electronic Orientation quadrupole field applied
 Nucleus-field energy     =    -0.0000000017 hartrees
 Guess from superposition of atomic densities
 Warning:  Energy on first SCF cycle will be non-variational
 SAD guess density has 60.000000 electrons

 -----------------------------------------------------------------------
  General SCF calculation program by
  Eric Jon Sundstrom, Paul Horn, Yuezhi Mao, Dmitri Zuev, Alec White,
  David Stuck, Shaama M.S., Shane Yost, Joonho Lee, David Small,
  Daniel Levine, Susi Lehtola, Hugh Burton, Evgeny Epifanovsky,
  Bang C. Huynh
 -----------------------------------------------------------------------
 Hartree-Fock
 A restricted SCF calculation will be
 performed using DIIS
 SCF converges when DIIS error is below 1.0e-06
 ---------------------------------------
  Cycle       Energy         DIIS error
 ---------------------------------------
    1    -632.2621456618      2.97e-02  
    2    -629.2514657853      1.94e-03  
    3    -629.3231668322      6.67e-04  
    4    -629.3309025101      3.46e-04  
    5    -629.3330893149      7.07e-05  
    6    -629.3332819607      3.73e-05  
    7    -629.3333502010      1.66e-05  
    8    -629.3333794919      1.03e-05  
    9    -629.3333872565      3.90e-06  
   10    -629.3333886465      1.76e-06  
   11    -629.3333888976      7.82e-07  Convergence criterion met
 ---------------------------------------
 SCF time:   CPU 167.59s  wall 169.00s 

************** Final PCM Free Energy Summary **************
 G_electrostatic  =      -0.00637487 hartree =      -4.00028914 kcal/mol
 G_cavitation     =       0.00000000 hartree =       0.00000000 kcal/mol
 G_dispersion     =       0.00000000 hartree =       0.00000000 kcal/mol
 G_repulsion      =       0.00000000 hartree =       0.00000000 kcal/mol
 --------------------------------------------------
 Non-electrostatic Free Energy =       0.00000000 hartree =       0.00000000 kcal/mol
 Total                         =      -0.00637487 hartree =      -4.00028914 kcal/mol
 --------------------------------------------------
 SCF Energy (H0 + V/2)                       =    -629.33338890 
 Solute Internal Energy (H0)                 =    -629.32701403 
 Total Free Energy (H0 + V/2 + non-elec)     =    -629.33338890 hartree
                                             = -394912.66194974 kcal/mol
***********************************************************

 SCF   energy in the final basis set =     -629.3333888976
 Total energy in the final basis set =     -629.3333888976


 --------------------------------------------------------------
  Generalized many-body perturbation theory program
  by Joonho Lee, Fazle Rob, Xintian Feng, Evgeny Epifanovsky

 No regularization used 
 (reg. param. = 0.0000e+00)
  (P|Q)^-1/2 Time:  CPU 0.48 s  wall 0.48 s

 In RI-MP2 calculation: 
 # of frozen core orbitals: 11

 Components of the RIMP2 correlation energy:
        aaaa    correlation energy =        -0.1486833147 a.u.
        abab    correlation energy =        -0.8975075557 a.u.
        bbbb    correlation energy =        -0.1486833147 a.u.
        non-Brillouin singles      =        -0.0000000000 a.u.
        total same-spin energy     =        -0.2973666293 a.u.
        total opposite-spin energy =        -0.8975075557 a.u.

 Total  RIMP2   correlation energy =        -1.1948741850 a.u.
        RIMP2         total energy =      -630.5282630825 a.u.

 RI-MP2 Energy Time:  CPU 11.30 s  wall 11.33 s
 
 --------------------------------------------------------------
 
                    Orbital Energies (a.u.)
 --------------------------------------------------------------
 
 Alpha MOs
 -- Occupied --
-91.9791 -11.2800 -11.2496 -11.2493 -11.2473 -11.2292 -11.2060  -8.9794
 -6.6602  -6.6594  -6.6591  -1.1782  -1.0581  -1.0018  -0.9338  -0.8809
 -0.7500  -0.7332  -0.6449  -0.5940  -0.5801  -0.5689  -0.5537  -0.5459
 -0.5142  -0.4789  -0.4542  -0.4472  -0.3293  -0.2883
 -- Virtual --
  0.0608   0.1405   0.1628   0.1752   0.1817   0.1923   0.2034   0.2236
  0.2279   0.2413   0.2481   0.2524   0.2960   0.2979   0.3368   0.3495
  0.3634   0.3932   0.4006   0.4078   0.4347   0.4487   0.4594   0.4676
  0.4786   0.4987   0.5145   0.5317   0.5369   0.5479   0.5745   0.5780
  0.5919   0.6024   0.6101   0.6145   0.6254   0.6367   0.6401   0.6454
  0.6516   0.6710   0.6869   0.7229   0.7357   0.7538   0.7685   0.7836
  0.8066   0.8080   0.8244   0.8489   0.8656   0.8756   0.9010   0.9159
  0.9318   0.9729   1.0217   1.0334   1.0434   1.0648   1.0739   1.0821
  1.0927   1.1294   1.1462   1.1476   1.1808   1.1943   1.2093   1.2235
  1.2261   1.2474   1.2527   1.2592   1.2715   1.2928   1.3209   1.3350
  1.3605   1.3713   1.3874   1.4050   1.4297   1.4388   1.4608   1.4824
  1.4885   1.5085   1.5144   1.5335   1.5513   1.5537   1.5862   1.5895
  1.6057   1.6273   1.6465   1.6517   1.6798   1.6877   1.7080   1.7372
  1.7566   1.7817   1.8042   1.8366   1.8600   1.9114   1.9252   1.9636
  1.9908   2.0403   2.0660   2.1129   2.1685   2.1925   2.2023   2.2323
  2.2583   2.2751   2.3698   2.4011   2.4298   2.4695   2.4829   2.5288
  2.5653   2.6107   2.6405   2.6548   2.6696   2.6974   2.7213   2.7565
  2.7709   2.7923   2.8021   2.8256   2.8427   2.8553   2.8655   2.9006
  2.9112   2.9305   2.9613   2.9811   3.0074   3.0296   3.0360   3.0835
  3.0949   3.1093   3.1137   3.1448   3.1560   3.1661   3.1763   3.1983
  3.2127   3.2319   3.2407   3.2641   3.2859   3.3017   3.3096   3.3336
  3.3399   3.3638   3.3867   3.3928   3.4029   3.4201   3.4212   3.4390
  3.4541   3.4740   3.4959   3.5084   3.5307   3.5454   3.5495   3.5611
  3.5723   3.5895   3.5981   3.6327   3.6397   3.6639   3.6858   3.7024
  3.7131   3.7290   3.7514   3.7532   3.7771   3.7893   3.8049   3.8123
  3.8365   3.8481   3.8698   3.9016   3.9409   3.9557   3.9766   3.9934
  4.0135   4.0232   4.0391   4.0446   4.0642   4.1017   4.1192   4.1427
  4.1483   4.1677   4.1818   4.1976   4.2208   4.2340   4.2639   4.2696
  4.2887   4.3094   4.3268   4.3473   4.3787   4.3852   4.4028   4.4150
  4.4252   4.4302   4.4684   4.5112   4.5272   4.5416   4.5861   4.5991
  4.6257   4.6508   4.6665   4.6871   4.7051   4.7323   4.7734   4.8294
  4.8382   4.8649   4.8936   4.9122   4.9274   4.9954   5.0398   5.0933
  5.1112   5.1428   5.1810   5.1911   5.2316   5.2721   5.2802   5.3134
  5.3676   5.4095   5.4218   5.4318   5.4547   5.5025   5.5496   5.5520
  5.5952   5.6223   5.6299   5.6992   5.7043   5.8046   5.8634   5.8785
  5.8885   5.9792   6.0182   6.0927   6.2045   6.2311   6.2512   6.3388
  6.4147   6.4942   9.2804  11.9570  12.7974  13.7638  14.1616  14.3309
 --------------------------------------------------------------
 
          Ground-State Mulliken Net Atomic Charges

     Atom                 Charge (a.u.)
  ----------------------------------------
      1 C                    -0.115523
      2 C                    -0.103417
      3 C                    -0.034411
      4 H                     0.185008
      5 C                    -0.199263
      6 S                     0.031010
      7 C                    -0.267417
      8 H                     0.102204
      9 H                     0.107240
     10 H                     0.103232
     11 C                    -0.373740
     12 H                     0.117805
     13 H                     0.120546
     14 H                     0.127646
     15 H                     0.199081
  ----------------------------------------
  Sum of atomic charges =     0.000000

 -----------------------------------------------------------------
                    Cartesian Multipole Moments
 -----------------------------------------------------------------
    Charge (ESU x 10^10)
                -0.0000
    Dipole Moment (Debye)
         X       2.7857      Y       0.0137      Z       1.9069
       Tot       3.3759
    Quadrupole Moments (Debye-Ang)
        XX     -48.8412     XY       3.5549     YY     -50.3717
        XZ      -0.7643     YZ      -0.7322     ZZ     -47.3830
    Octopole Moments (Debye-Ang^2)
       XXX     -77.9663    XXY      -2.2755    XYY     -24.2558
       YYY     -34.5586    XXZ      -5.0767    XYZ      -0.5835
       YYZ      -1.8152    XZZ     -26.8150    YZZ      -9.6795
       ZZZ       1.7743
    Hexadecapole Moments (Debye-Ang^3)
      XXXX    -483.2741   XXXY    -136.0408   XXYY    -141.4749
      XYYY    -148.6108   YYYY    -382.2707   XXXZ     -88.7867
      XXYZ     -21.8669   XYYZ     -33.4669   YYYZ     -49.5282
      XXZZ    -157.2466   XYZZ     -41.8374   YYZZ    -145.4921
      XZZZ     -87.2542   YZZZ     -47.4822   ZZZZ    -476.9929
 -----------------------------------------------------------------
 Total job time:  181.18s(wall), 179.23s(cpu) 
 Sun Jul 10 10:43:40 2022

        *************************************************************
        *                                                           *
        *  Thank you very much for using Q-Chem.  Have a nice day.  *
        *                                                           *
        *************************************************************


remove work dirs ./qchem2283892.0 -- ./qchem2283892.-1
rm -rf ./qchem2283892
