You are running Q-Chem version: 5.4.0

#
# job setting
#
local host:  exp-7-01
current dir: /expanse/lustre/scratch/theleonzhang/temp_project/Hydrogenated_Impropers_Test
input file:  Methylthiophene_Phi_40_Theta_250_Methylthiophene_Hydrogenated_Improper.qcin
output file: 
nprocs     : 0
nthreads   : 1
#
# qchem installation setting
#
QC:          /cm/shared/apps/spack/cpu/opt/spack/linux-centos8-zen2/gcc-10.2.0/qchem-5.4-akfmr7b3t57bfs6qan3padb2wnb2i7cl
QCAUX:       /cm/shared/apps/spack/cpu/opt/spack/linux-centos8-zen2/gcc-10.2.0/qchem-5.4-akfmr7b3t57bfs6qan3padb2wnb2i7cl/qcaux
QCPROG:      /cm/shared/apps/spack/cpu/opt/spack/linux-centos8-zen2/gcc-10.2.0/qchem-5.4-akfmr7b3t57bfs6qan3padb2wnb2i7cl/exe/qcprog.exe_s
QCPROG_S:    /cm/shared/apps/spack/cpu/opt/spack/linux-centos8-zen2/gcc-10.2.0/qchem-5.4-akfmr7b3t57bfs6qan3padb2wnb2i7cl/exe/qcprog.exe_s
PARALLEL:    -DSERIAL
QCMPI:       mpich
#
# qchem directory setting
#
qcrun:       qchem919662
QCSCRATCH:   .
QCLOCALSCR:  
QCTMPDIR:    .
QCFILEPREF:  ./qchem919662
QCSAVEDIR:   
workdirs:    ./qchem919662
workdir0:    ./qchem919662
partmpdirs =  
#
# parallel setting
#
QCRSH:           ssh
QCMPI:           mpich
QCMPIRUN:        /cm/shared/apps/spack/cpu/opt/spack/linux-centos8-zen2/gcc-10.2.0/qchem-5.4-akfmr7b3t57bfs6qan3padb2wnb2i7cl/bin/mpi/mpirun_qchem
QCMACHINEFILE:   ./qchem919662/hostfile

#
# env setting
#
exported envs:   QC QCAUX QCSCRATCH QCRUNNAME QCFILEPREF QCPROG QCPROG_S GUIFILE

Running Job 1 of 1 Methylthiophene_Phi_40_Theta_250_Methylthiophene_Hydrogenated_Improper.qcin
qchem Methylthiophene_Phi_40_Theta_250_Methylthiophene_Hydrogenated_Improper.qcin_919662.0 ./qchem919662/ 0
/cm/shared/apps/spack/cpu/opt/spack/linux-centos8-zen2/gcc-10.2.0/qchem-5.4-akfmr7b3t57bfs6qan3padb2wnb2i7cl/exe/qcprog.exe_s Methylthiophene_Phi_40_Theta_250_Methylthiophene_Hydrogenated_Improper.qcin_919662.0 ./qchem919662/
                  Welcome to Q-Chem
     A Quantum Leap Into The Future Of Chemistry


 Q-Chem 5.4, Q-Chem, Inc., Pleasanton, CA (2021)

 License issued to: University of California, San Diego (site)

 E. Epifanovsky,  A. T. B. Gilbert,  Xintian Feng,  Joonho Lee,  Yuezhi Mao,  
 N. Mardirossian,  P. Pokhilko,  A. White,  M. Wormit,  M. P. Coons,  
 A. L. Dempwolff,  Zhengting Gan,  D. Hait,  P. R. Horn,  L. D. Jacobson,  
 I. Kaliman,  J. Kussmann,  A. W. Lange,  Ka Un Lao,  D. S. Levine,  Jie Liu,  
 S. C. McKenzie,  A. F. Morrison,  K. Nanda,  F. Plasser,  D. R. Rehn,  
 M. L. Vidal,  Zhi-Qiang You,  Ying Zhu,  B. Alam,  B. Albrecht,  
 A. Aldossary,  E. Alguire,  J. H. Andersen,  D. Barton,  K. Begam,  A. Behn,  
 Y. A. Bernard,  E. J. Berquist,  H. Burton,  A. Carreras,  K. Carter-Fenk,  
 R. Chakraborty,  A. D. Chien,  K. D. Closser,  V. Cofer-Shabica,  
 S. Dasgupta,  Jia Deng,  M. de Wergifosse,  M. Diedenhofen,  Hainam Do,  
 S. Ehlert,  Po-Tung Fang,  S. Fatehi,  Qingguo Feng,  J. Gayvert,  
 Qinghui Ge,  G. Gidofalvi,  M. Goldey,  J. Gomes,  C. Gonzalez-Espinoza,  
 S. Gulania,  A. Gunina,  M. W. D. Hanson-Heine,  P. H. P. Harbach,  
 A. W. Hauser,  M. F. Herbst,  M. Hernandez Vera,  M. Hodecker,  
 Z. C. Holden,  S. Houck,  Xunkun Huang,  Kerwin Hui,  B. C. Huynh,  
 M. Ivanov,  Hyunjun Ji,  Hanjie Jiang,  B. Kaduk,  S. Kaehler,  
 K. Khistyaev,  Jaehoon Kim,  P. Klunzinger,  Z. Koczor-Benda,  
 Joong Hoon Koh,  D. Kosenkov,  L. Koulias,  T. Kowalczyk,  C. M. Krauter,  
 K. Kue,  A. Kunitsa,  T. Kus,  A. Landau,  K. V. Lawler,  D. Lefrancois,  
 S. Lehtola,  Rain Li,  Yi-Pei Li,  Jiashu Liang,  M. Liebenthal,  
 Hung-Hsuan Lin,  You-Sheng Lin,  Fenglai Liu,  Kuan-Yu Liu,  
 M. Loipersberger,  A. Luenser,  A. Manjanath,  P. Manohar,  E. Mansoor,  
 S. F. Manzer,  Shan-Ping Mao,  A. V. Marenich,  T. Markovich,  S. Mason,  
 S. A. Maurer,  P. F. McLaughlin,  M. F. S. J. Menger,  J.-M. Mewes,  
 S. A. Mewes,  P. Morgante,  J. W. Mullinax,  T. S. Nguyen-Beck,  
 K. J. Oosterbaan,  G. Paran,  Alexander C. Paul,  Suranjan K. Paul,  
 F. Pavosevic,  Zheng Pei,  S. Prager,  E. I. Proynov,  E. Ramos,  B. Rana,  
 A. E. Rask,  A. Rettig,  R. M. Richard,  F. Rob,  E. Rossomme,  T. Scheele,  
 M. Scheurer,  M. Schneider,  N. Sergueev,  S. M. Sharada,  W. Skomorowski,  
 D. W. Small,  C. J. Stein,  Yu-Chuan Su,  E. J. Sundstrom,  Zhen Tao,  
 J. Thirman,  T. Tsuchimochi,  N. M. Tubman,  S. P. Veccham,  O. Vydrov,  
 J. Wenzel,  J. Witte,  A. Yamada,  Kun Yao,  S. Yeganeh,  S. R. Yost,  
 A. Zech,  Igor Ying Zhang,  Xing Zhang,  Yu Zhang,  D. Zuev,  
 A. Aspuru-Guzik,  A. T. Bell,  N. A. Besley,  K. B. Bravaya,  B. R. Brooks,  
 D. Casanova,  Jeng-Da Chai,  S. Coriani,  C. J. Cramer,  
 A. E. DePrince, III,  R. A. DiStasio Jr.,  A. Dreuw,  B. D. Dunietz,  
 T. R. Furlani,  W. A. Goddard III,  S. Grimme,  S. Hammes-Schiffer,  
 T. Head-Gordon,  W. J. Hehre,  Chao-Ping Hsu,  T.-C. Jagau,  Yousung Jung,  
 A. Klamt,  Jing Kong,  D. S. Lambrecht,  WanZhen Liang,  N. J. Mayhall,  
 C. W. McCurdy,  J. B. Neaton,  C. Ochsenfeld,  J. A. Parkhill,  R. Peverati,  
 V. A. Rassolov,  Yihan Shao,  L. V. Slipchenko,  T. Stauch,  R. P. Steele,  
 J. E. Subotnik,  A. J. W. Thom,  A. Tkatchenko,  D. G. Truhlar,  
 T. Van Voorhis,  T. A. Wesolowski,  K. B. Whaley,  H. L. Woodcock III,  
 P. M. Zimmerman,  S. Faraji,  P. M. W. Gill,  M. Head-Gordon,  
 J. M. Herbert,  A. I. Krylov

 Contributors to earlier versions of Q-Chem not listed above: 
 R. D. Adamson,  B. Austin,  R. Baer,  J. Baker,  G. J. O. Beran,  
 K. Brandhorst,  S. T. Brown,  E. F. C. Byrd,  A. K. Chakraborty,  
 G. K. L. Chan,  Chun-Min Chang,  Yunqing Chen,  C.-L. Cheng,  
 Siu Hung Chien,  D. M. Chipman,  D. L. Crittenden,  H. Dachsel,  
 R. J. Doerksen,  A. D. Dutoi,  R. G. Edgar,  J. Fosso-Tande,  
 L. Fusti-Molnar,  D. Ghosh,  A. Ghysels,  A. Golubeva-Zadorozhnaya,  
 J. Gonthier,  M. S. Gordon,  S. R. Gwaltney,  G. Hawkins,  J. E. Herr,  
 A. Heyden,  S. Hirata,  E. G. Hohenstein,  G. Kedziora,  F. J. Keil,  
 C. Kelley,  Jihan Kim,  R. A. King,  R. Z. Khaliullin,  P. P. Korambath,  
 W. Kurlancheek,  A. Laurent,  A. M. Lee,  M. S. Lee,  S. V. Levchenko,  
 Ching Yeh Lin,  D. Liotard,  E. Livshits,  R. C. Lochan,  I. Lotan,  
 L. A. Martinez-Martinez,  P. E. Maslen,  N. Nair,  D. P. O'Neill,  
 D. Neuhauser,  E. Neuscamman,  C. M. Oana,  R. Olivares-Amaya,  R. Olson,  
 T. M. Perrine,  B. Peters,  P. A. Pieniazek,  A. Prociuk,  Y. M. Rhee,  
 J. Ritchie,  M. A. Rohrdanz,  E. Rosta,  N. J. Russ,  H. F. Schaefer III,  
 M. W. Schmidt,  N. E. Schultz,  S. Sharma,  N. Shenvi,  C. D. Sherrill,  
 A. C. Simmonett,  A. Sodt,  T. Stein,  D. Stuck,  K. S. Thanthiriwatte,  
 V. Vanovschi,  L. Vogt,  Tao Wang,  A. Warshel,  M. A. Watson,  
 C. F. Williams,  Q. Wu,  X. Xu,  Jun Yang,  W. Zhang,  Yan Zhao

 Please cite Q-Chem as follows:
 Y. Shao et al., Mol. Phys. 113, 184-215 (2015)
 DOI: 10.1080/00268976.2014.952696

 Q-Chem 5.4.0 for Intel X86 EM64T Linux

 Parts of Q-Chem use Armadillo 9.800.1 (Horizon Scraper).
 http://arma.sourceforge.net/

 Q-Chem begins on Sun Jul 10 09:34:25 2022  

 Host: 
0

     Scratch files written to ./qchem919662//
 May1621 |scratch|qcdevops|jenkins|workspace|build_RNUM    
 Processing $rem in /cm/shared/apps/spack/cpu/opt/spack/linux-centos8-zen2/gcc-10.2.0/qchem-5.4-akfmr7b3t57bfs6qan3padb2wnb2i7cl/config/preferences:
 Processing $rem in /home/theleonzhang/.qchemrc:
 Symmetry turned off for PCM/SM12/SMD calculation
 Core orbitals will be frozen

 Checking the input file for inconsistencies... 	...done.

--------------------------------------------------------------
User input:
--------------------------------------------------------------
$molecule
0 1
C	-0.434922	-0.417594	0.019788
C	0.120178	0.243906	1.119188
C	1.009778	1.304106	0.796488
H	-0.116822	-0.038594	2.155888
C	1.151678	1.473106	-0.592712
S	0.170878	0.304306	-1.467012
C	1.708978	2.137306	1.834388
H	1.435378	1.811306	2.856488
H	1.445978	3.212106	1.745988
H	2.813178	2.064906	1.745988
C	-0.434922	-1.858294	0.019788
H	-0.804222	-1.858494	-0.995112
H	-1.204722	-2.562094	0.299888
H	0.455078	-2.377194	-0.304112
H	1.761778	2.200206	-1.141812
$end

$rem
JOBTYPE		SP
EXCHANGE	HF
CORRELATION	pRIMP2
BASIS		cc-pvtz
METHOD		rimp2
AUX_BASIS	rimp2-cc-pvtz
SOLVENT_METHOD	PCM
PURECART	11111
SYMMETRY	false
MEM_TOTAL	110000
SCF_CONVERGENCE = 6
THRESH=10
$end



$solvent
dielectric 4.90
$end
--------------------------------------------------------------
 ----------------------------------------------------------------
             Standard Nuclear Orientation (Angstroms)
    I     Atom           X                Y                Z
 ----------------------------------------------------------------
    1      C      -0.4349220000    -0.4175940000     0.0197880000
    2      C       0.1201780000     0.2439060000     1.1191880000
    3      C       1.0097780000     1.3041060000     0.7964880000
    4      H      -0.1168220000    -0.0385940000     2.1558880000
    5      C       1.1516780000     1.4731060000    -0.5927120000
    6      S       0.1708780000     0.3043060000    -1.4670120000
    7      C       1.7089780000     2.1373060000     1.8343880000
    8      H       1.4353780000     1.8113060000     2.8564880000
    9      H       1.4459780000     3.2121060000     1.7459880000
   10      H       2.8131780000     2.0649060000     1.7459880000
   11      C      -0.4349220000    -1.8582940000     0.0197880000
   12      H      -0.8042220000    -1.8584940000    -0.9951120000
   13      H      -1.2047220000    -2.5620940000     0.2998880000
   14      H       0.4550780000    -2.3771940000    -0.3041120000
   15      H       1.7617780000     2.2002060000    -1.1418120000
 ----------------------------------------------------------------
 Nuclear Repulsion Energy =         347.48570114 hartrees
 There are       30 alpha and       30 beta electrons

 Q-Chem warning in module forms1/BasisType.C, line 2236:

 You are not using the predefined 5D/6D in this basis set.

 Requested basis set is cc-pVTZ
 There are 120 shells and 326 basis functions

 Total QAlloc Memory Limit 110000 MB
 Mega-Array Size       188 MB
 MEM_STATIC part       192 MB
 Discretize the solute cavity surface with Lebedev spheres
	Using 110 Lebedev grid points for each H atom
	Using 194 Lebedev grid points for other atoms
	Atomic van der Waals radii will be scaled by 1.20
 Remove points where switching function is < 1.0e-08
 Keep 1048 surface tesserae and discard 1190 interior tesserae
 Molecular Surface Area = 157.404 Angst**2

                       Distance Matrix (Angstroms)
             C (  1)   C (  2)   C (  3)   H (  4)   C (  5)   S (  6)
   C (  2)  1.397998
   C (  3)  2.377955  1.421108
   H (  4)  2.192659  1.100328  2.218116
   C (  5)  2.543069  2.346386  1.406618  3.383656
   S (  6)  1.760315  2.587402  2.612812  3.650446  1.758540
   C (  7)  3.796919  2.573084  1.503442  2.858575  2.577316  4.077362
   H (  8)  4.063605  2.684158  2.163790  2.514417  3.477333  4.750017
   H (  9)  4.437598  3.310715  2.175382  3.630071  2.929207  4.517140
   H ( 10)  4.437649  3.310766  2.175458  3.630101  2.929220  4.517171
   C ( 11)  1.440700  2.436403  3.562470  2.824078  3.740412  2.693401
   H ( 12)  1.800721  3.121677  4.062323  3.703155  3.884203  2.418928
   H ( 13)  2.295632  3.209400  4.483093  3.316069  4.757331  3.637370
   H ( 14)  2.176475  3.001351  3.882136  3.442052  3.923436  2.936588
   H ( 15)  3.609388  3.410877  2.263958  4.406380  1.096543  2.496228
             C (  7)   H (  8)   H (  9)   H ( 10)   C ( 11)   H ( 12)
   H (  8)  1.107168
   H (  9)  1.110035  1.787614
   H ( 10)  1.110096  1.787696  1.784742
   C ( 11)  4.884045  5.001085  5.676840  5.377864
   H ( 12)  5.503514  5.772180  6.187731  5.999357  1.080002
   H ( 13)  5.738353  5.712527  6.516042  6.296337  1.079992  1.527245
   H ( 14)  5.150355  5.337969  6.035318  5.431003  1.079939  1.527209
   H ( 15)  2.977333  4.030407  3.076209  3.076221  4.758805  4.804053
             H ( 13)   H ( 14)
   H ( 14)  1.775934
   H ( 15)  5.792937  4.833404
 
 Requested basis set is rimp2-cc-pVTZ
 There are 250 shells and 848 basis functions
 A cutoff of  1.0D-10 yielded   6229 shell pairs
 There are     45717 function pairs (     58811 Cartesian)
 Smallest overlap matrix eigenvalue = 1.30E-04

 Scale SEOQF with 1.000000e-01/1.000000e-01/1.000000e-01

 Standard Electronic Orientation quadrupole field applied
 Nucleus-field energy     =     0.0000000003 hartrees
 Guess from superposition of atomic densities
 Warning:  Energy on first SCF cycle will be non-variational
 SAD guess density has 60.000000 electrons

 -----------------------------------------------------------------------
  General SCF calculation program by
  Eric Jon Sundstrom, Paul Horn, Yuezhi Mao, Dmitri Zuev, Alec White,
  David Stuck, Shaama M.S., Shane Yost, Joonho Lee, David Small,
  Daniel Levine, Susi Lehtola, Hugh Burton, Evgeny Epifanovsky,
  Bang C. Huynh
 -----------------------------------------------------------------------
 Hartree-Fock
 A restricted SCF calculation will be
 performed using DIIS
 SCF converges when DIIS error is below 1.0e-06
 ---------------------------------------
  Cycle       Energy         DIIS error
 ---------------------------------------
    1    -632.1477162791      2.93e-02  
    2    -629.3084602686      1.93e-03  
    3    -629.3790498986      6.69e-04  
    4    -629.3866304216      3.29e-04  
    5    -629.3886466570      6.35e-05  
    6    -629.3887947898      2.66e-05  
    7    -629.3888353297      1.23e-05  
    8    -629.3888476282      4.14e-06  
    9    -629.3888491919      1.26e-06  
   10    -629.3888492983      5.35e-07  Convergence criterion met
 ---------------------------------------
 SCF time:   CPU 155.87s  wall 156.00s 

************** Final PCM Free Energy Summary **************
 G_electrostatic  =      -0.00491608 hartree =      -3.08488919 kcal/mol
 G_cavitation     =       0.00000000 hartree =       0.00000000 kcal/mol
 G_dispersion     =       0.00000000 hartree =       0.00000000 kcal/mol
 G_repulsion      =       0.00000000 hartree =       0.00000000 kcal/mol
 --------------------------------------------------
 Non-electrostatic Free Energy =       0.00000000 hartree =       0.00000000 kcal/mol
 Total                         =      -0.00491608 hartree =      -3.08488919 kcal/mol
 --------------------------------------------------
 SCF Energy (H0 + V/2)                       =    -629.38884930 
 Solute Internal Energy (H0)                 =    -629.38393321 
 Total Free Energy (H0 + V/2 + non-elec)     =    -629.38884930 hartree
                                             = -394947.46387645 kcal/mol
***********************************************************

 SCF   energy in the final basis set =     -629.3888492983
 Total energy in the final basis set =     -629.3888492983


 --------------------------------------------------------------
  Generalized many-body perturbation theory program
  by Joonho Lee, Fazle Rob, Xintian Feng, Evgeny Epifanovsky

 No regularization used 
 (reg. param. = 0.0000e+00)
  (P|Q)^-1/2 Time:  CPU 0.52 s  wall 0.52 s

 In RI-MP2 calculation: 
 # of frozen core orbitals: 11

 Components of the RIMP2 correlation energy:
        aaaa    correlation energy =        -0.1466519331 a.u.
        abab    correlation energy =        -0.8911394697 a.u.
        bbbb    correlation energy =        -0.1466519331 a.u.
        non-Brillouin singles      =        -0.0000000000 a.u.
        total same-spin energy     =        -0.2933038662 a.u.
        total opposite-spin energy =        -0.8911394697 a.u.

 Total  RIMP2   correlation energy =        -1.1844433359 a.u.
        RIMP2         total energy =      -630.5732926342 a.u.

 RI-MP2 Energy Time:  CPU 12.02 s  wall 12.06 s
 
 --------------------------------------------------------------
 
                    Orbital Energies (a.u.)
 --------------------------------------------------------------
 
 Alpha MOs
 -- Occupied --
-91.9787 -11.2685 -11.2608 -11.2477 -11.2374 -11.2275 -11.2117  -8.9789
 -6.6598  -6.6592  -6.6587  -1.1657  -1.0551  -0.9946  -0.9451  -0.8805
 -0.7503  -0.7222  -0.6446  -0.5917  -0.5764  -0.5672  -0.5522  -0.5468
 -0.5138  -0.4730  -0.4621  -0.4426  -0.3363  -0.3028
 -- Virtual --
  0.0812   0.1425   0.1524   0.1763   0.1852   0.1910   0.1973   0.2271
  0.2327   0.2454   0.2471   0.2790   0.2920   0.3075   0.3414   0.3513
  0.3716   0.3892   0.4052   0.4171   0.4316   0.4614   0.4645   0.4736
  0.4866   0.4969   0.5157   0.5341   0.5398   0.5490   0.5750   0.5805
  0.5914   0.6031   0.6139   0.6230   0.6273   0.6387   0.6441   0.6524
  0.6583   0.6641   0.6871   0.7035   0.7425   0.7547   0.7614   0.7706
  0.7977   0.8126   0.8368   0.8432   0.8657   0.8808   0.8958   0.9157
  0.9504   0.9646   0.9998   1.0181   1.0367   1.0551   1.0641   1.0812
  1.0871   1.1046   1.1229   1.1478   1.1610   1.1794   1.2115   1.2164
  1.2258   1.2420   1.2502   1.2626   1.2748   1.2991   1.3221   1.3368
  1.3457   1.3518   1.3812   1.4074   1.4144   1.4227   1.4578   1.4717
  1.4914   1.5114   1.5179   1.5238   1.5469   1.5707   1.5809   1.6034
  1.6070   1.6154   1.6394   1.6477   1.6771   1.7008   1.7068   1.7456
  1.7562   1.7935   1.8024   1.8307   1.8664   1.9188   1.9407   1.9626
  1.9879   2.0513   2.0591   2.1329   2.1518   2.1904   2.2085   2.2210
  2.2544   2.2672   2.3358   2.4085   2.4468   2.4828   2.5386   2.5601
  2.5749   2.6066   2.6470   2.6683   2.6742   2.7056   2.7236   2.7341
  2.7589   2.7748   2.7875   2.8086   2.8137   2.8380   2.8702   2.8840
  2.8953   2.9225   2.9586   2.9904   2.9991   3.0236   3.0518   3.0647
  3.0946   3.1100   3.1168   3.1352   3.1536   3.1713   3.1834   3.2001
  3.2222   3.2402   3.2502   3.2632   3.2707   3.2921   3.3091   3.3267
  3.3384   3.3633   3.3666   3.3777   3.3926   3.4065   3.4223   3.4270
  3.4311   3.4661   3.4872   3.5001   3.5165   3.5450   3.5538   3.5672
  3.5920   3.5969   3.6149   3.6296   3.6453   3.6597   3.6724   3.7026
  3.7067   3.7254   3.7301   3.7487   3.7674   3.7828   3.7985   3.8021
  3.8249   3.8414   3.8582   3.8844   3.9127   3.9240   3.9475   3.9600
  3.9794   3.9854   4.0032   4.0311   4.0493   4.0695   4.1033   4.1114
  4.1147   4.1392   4.1712   4.1864   4.1993   4.2230   4.2393   4.2506
  4.2740   4.2836   4.3164   4.3321   4.3548   4.3766   4.3838   4.4024
  4.4231   4.4289   4.4427   4.4662   4.4984   4.5274   4.5388   4.5897
  4.5983   4.6287   4.6544   4.7081   4.7132   4.7295   4.7627   4.7757
  4.7992   4.8226   4.8454   4.9001   4.9173   4.9542   5.0672   5.0866
  5.1030   5.1335   5.1681   5.1903   5.2285   5.2734   5.2898   5.3062
  5.3670   5.4056   5.4140   5.4313   5.4733   5.4905   5.5444   5.5583
  5.5907   5.6138   5.6260   5.6877   5.7219   5.8178   5.8228   5.8478
  5.8943   6.0194   6.0396   6.0989   6.2268   6.2310   6.2739   6.3620
  6.4046   6.4574   9.1473  11.6038  12.8328  13.8278  14.1641  14.2287
 --------------------------------------------------------------
 
          Ground-State Mulliken Net Atomic Charges

     Atom                 Charge (a.u.)
  ----------------------------------------
      1 C                    -0.030259
      2 C                    -0.204900
      3 C                     0.023536
      4 H                     0.178977
      5 C                    -0.229030
      6 S                     0.003941
      7 C                    -0.270311
      8 H                     0.101952
      9 H                     0.106798
     10 H                     0.105320
     11 C                    -0.360615
     12 H                     0.107465
     13 H                     0.141767
     14 H                     0.129092
     15 H                     0.196265
  ----------------------------------------
  Sum of atomic charges =     0.000000

 -----------------------------------------------------------------
                    Cartesian Multipole Moments
 -----------------------------------------------------------------
    Charge (ESU x 10^10)
                -0.0000
    Dipole Moment (Debye)
         X       1.1660      Y       0.2450      Z       1.0495
       Tot       1.5877
    Quadrupole Moments (Debye-Ang)
        XX     -50.3147     XY       5.0773     YY     -46.3937
        XZ      -0.0600     YZ       0.9607     ZZ     -48.4750
    Octopole Moments (Debye-Ang^2)
       XXX     -64.1053    XXY     -16.5931    XYY     -16.3152
       YYY     -60.2944    XXZ      -3.1034    XYZ      -1.6448
       YYZ      -5.6124    XZZ     -19.3253    YZZ     -16.1862
       ZZZ       3.1547
    Hexadecapole Moments (Debye-Ang^3)
      XXXX    -311.3595   XXXY    -153.4989   XXYY    -138.6928
      XYYY    -144.3207   YYYY    -587.3250   XXXZ     -63.9038
      XXYZ     -29.5994   XYYZ     -27.1525   YYYZ     -77.3300
      XXZZ    -133.3227   XYZZ     -45.6982   YYZZ    -180.8977
      XZZZ     -66.4768   YZZZ     -80.8674   ZZZZ    -480.0748
 -----------------------------------------------------------------
 Total job time:  170.42s(wall), 168.32s(cpu) 
 Sun Jul 10 09:37:15 2022

        *************************************************************
        *                                                           *
        *  Thank you very much for using Q-Chem.  Have a nice day.  *
        *                                                           *
        *************************************************************


remove work dirs ./qchem919662.0 -- ./qchem919662.-1
rm -rf ./qchem919662
