You are running Q-Chem version: 5.4.0

#
# job setting
#
local host:  exp-4-11
current dir: /expanse/lustre/scratch/theleonzhang/temp_project/Hydrogenated_Impropers_Test
input file:  Methylthiophene_Phi_15_Theta_190_Methylthiophene_Hydrogenated_Improper.qcin
output file: 
nprocs     : 0
nthreads   : 1
#
# qchem installation setting
#
QC:          /cm/shared/apps/spack/cpu/opt/spack/linux-centos8-zen2/gcc-10.2.0/qchem-5.4-akfmr7b3t57bfs6qan3padb2wnb2i7cl
QCAUX:       /cm/shared/apps/spack/cpu/opt/spack/linux-centos8-zen2/gcc-10.2.0/qchem-5.4-akfmr7b3t57bfs6qan3padb2wnb2i7cl/qcaux
QCPROG:      /cm/shared/apps/spack/cpu/opt/spack/linux-centos8-zen2/gcc-10.2.0/qchem-5.4-akfmr7b3t57bfs6qan3padb2wnb2i7cl/exe/qcprog.exe_s
QCPROG_S:    /cm/shared/apps/spack/cpu/opt/spack/linux-centos8-zen2/gcc-10.2.0/qchem-5.4-akfmr7b3t57bfs6qan3padb2wnb2i7cl/exe/qcprog.exe_s
PARALLEL:    -DSERIAL
QCMPI:       mpich
#
# qchem directory setting
#
qcrun:       qchem3431999
QCSCRATCH:   .
QCLOCALSCR:  
QCTMPDIR:    .
QCFILEPREF:  ./qchem3431999
QCSAVEDIR:   
workdirs:    ./qchem3431999
workdir0:    ./qchem3431999
partmpdirs =  
#
# parallel setting
#
QCRSH:           ssh
QCMPI:           mpich
QCMPIRUN:        /cm/shared/apps/spack/cpu/opt/spack/linux-centos8-zen2/gcc-10.2.0/qchem-5.4-akfmr7b3t57bfs6qan3padb2wnb2i7cl/bin/mpi/mpirun_qchem
QCMACHINEFILE:   ./qchem3431999/hostfile

#
# env setting
#
exported envs:   QC QCAUX QCSCRATCH QCRUNNAME QCFILEPREF QCPROG QCPROG_S GUIFILE

Running Job 1 of 1 Methylthiophene_Phi_15_Theta_190_Methylthiophene_Hydrogenated_Improper.qcin
qchem Methylthiophene_Phi_15_Theta_190_Methylthiophene_Hydrogenated_Improper.qcin_3431999.0 ./qchem3431999/ 0
/cm/shared/apps/spack/cpu/opt/spack/linux-centos8-zen2/gcc-10.2.0/qchem-5.4-akfmr7b3t57bfs6qan3padb2wnb2i7cl/exe/qcprog.exe_s Methylthiophene_Phi_15_Theta_190_Methylthiophene_Hydrogenated_Improper.qcin_3431999.0 ./qchem3431999/
                  Welcome to Q-Chem
     A Quantum Leap Into The Future Of Chemistry


 Q-Chem 5.4, Q-Chem, Inc., Pleasanton, CA (2021)

 License issued to: University of California, San Diego (site)

 E. Epifanovsky,  A. T. B. Gilbert,  Xintian Feng,  Joonho Lee,  Yuezhi Mao,  
 N. Mardirossian,  P. Pokhilko,  A. White,  M. Wormit,  M. P. Coons,  
 A. L. Dempwolff,  Zhengting Gan,  D. Hait,  P. R. Horn,  L. D. Jacobson,  
 I. Kaliman,  J. Kussmann,  A. W. Lange,  Ka Un Lao,  D. S. Levine,  Jie Liu,  
 S. C. McKenzie,  A. F. Morrison,  K. Nanda,  F. Plasser,  D. R. Rehn,  
 M. L. Vidal,  Zhi-Qiang You,  Ying Zhu,  B. Alam,  B. Albrecht,  
 A. Aldossary,  E. Alguire,  J. H. Andersen,  D. Barton,  K. Begam,  A. Behn,  
 Y. A. Bernard,  E. J. Berquist,  H. Burton,  A. Carreras,  K. Carter-Fenk,  
 R. Chakraborty,  A. D. Chien,  K. D. Closser,  V. Cofer-Shabica,  
 S. Dasgupta,  Jia Deng,  M. de Wergifosse,  M. Diedenhofen,  Hainam Do,  
 S. Ehlert,  Po-Tung Fang,  S. Fatehi,  Qingguo Feng,  J. Gayvert,  
 Qinghui Ge,  G. Gidofalvi,  M. Goldey,  J. Gomes,  C. Gonzalez-Espinoza,  
 S. Gulania,  A. Gunina,  M. W. D. Hanson-Heine,  P. H. P. Harbach,  
 A. W. Hauser,  M. F. Herbst,  M. Hernandez Vera,  M. Hodecker,  
 Z. C. Holden,  S. Houck,  Xunkun Huang,  Kerwin Hui,  B. C. Huynh,  
 M. Ivanov,  Hyunjun Ji,  Hanjie Jiang,  B. Kaduk,  S. Kaehler,  
 K. Khistyaev,  Jaehoon Kim,  P. Klunzinger,  Z. Koczor-Benda,  
 Joong Hoon Koh,  D. Kosenkov,  L. Koulias,  T. Kowalczyk,  C. M. Krauter,  
 K. Kue,  A. Kunitsa,  T. Kus,  A. Landau,  K. V. Lawler,  D. Lefrancois,  
 S. Lehtola,  Rain Li,  Yi-Pei Li,  Jiashu Liang,  M. Liebenthal,  
 Hung-Hsuan Lin,  You-Sheng Lin,  Fenglai Liu,  Kuan-Yu Liu,  
 M. Loipersberger,  A. Luenser,  A. Manjanath,  P. Manohar,  E. Mansoor,  
 S. F. Manzer,  Shan-Ping Mao,  A. V. Marenich,  T. Markovich,  S. Mason,  
 S. A. Maurer,  P. F. McLaughlin,  M. F. S. J. Menger,  J.-M. Mewes,  
 S. A. Mewes,  P. Morgante,  J. W. Mullinax,  T. S. Nguyen-Beck,  
 K. J. Oosterbaan,  G. Paran,  Alexander C. Paul,  Suranjan K. Paul,  
 F. Pavosevic,  Zheng Pei,  S. Prager,  E. I. Proynov,  E. Ramos,  B. Rana,  
 A. E. Rask,  A. Rettig,  R. M. Richard,  F. Rob,  E. Rossomme,  T. Scheele,  
 M. Scheurer,  M. Schneider,  N. Sergueev,  S. M. Sharada,  W. Skomorowski,  
 D. W. Small,  C. J. Stein,  Yu-Chuan Su,  E. J. Sundstrom,  Zhen Tao,  
 J. Thirman,  T. Tsuchimochi,  N. M. Tubman,  S. P. Veccham,  O. Vydrov,  
 J. Wenzel,  J. Witte,  A. Yamada,  Kun Yao,  S. Yeganeh,  S. R. Yost,  
 A. Zech,  Igor Ying Zhang,  Xing Zhang,  Yu Zhang,  D. Zuev,  
 A. Aspuru-Guzik,  A. T. Bell,  N. A. Besley,  K. B. Bravaya,  B. R. Brooks,  
 D. Casanova,  Jeng-Da Chai,  S. Coriani,  C. J. Cramer,  
 A. E. DePrince, III,  R. A. DiStasio Jr.,  A. Dreuw,  B. D. Dunietz,  
 T. R. Furlani,  W. A. Goddard III,  S. Grimme,  S. Hammes-Schiffer,  
 T. Head-Gordon,  W. J. Hehre,  Chao-Ping Hsu,  T.-C. Jagau,  Yousung Jung,  
 A. Klamt,  Jing Kong,  D. S. Lambrecht,  WanZhen Liang,  N. J. Mayhall,  
 C. W. McCurdy,  J. B. Neaton,  C. Ochsenfeld,  J. A. Parkhill,  R. Peverati,  
 V. A. Rassolov,  Yihan Shao,  L. V. Slipchenko,  T. Stauch,  R. P. Steele,  
 J. E. Subotnik,  A. J. W. Thom,  A. Tkatchenko,  D. G. Truhlar,  
 T. Van Voorhis,  T. A. Wesolowski,  K. B. Whaley,  H. L. Woodcock III,  
 P. M. Zimmerman,  S. Faraji,  P. M. W. Gill,  M. Head-Gordon,  
 J. M. Herbert,  A. I. Krylov

 Contributors to earlier versions of Q-Chem not listed above: 
 R. D. Adamson,  B. Austin,  R. Baer,  J. Baker,  G. J. O. Beran,  
 K. Brandhorst,  S. T. Brown,  E. F. C. Byrd,  A. K. Chakraborty,  
 G. K. L. Chan,  Chun-Min Chang,  Yunqing Chen,  C.-L. Cheng,  
 Siu Hung Chien,  D. M. Chipman,  D. L. Crittenden,  H. Dachsel,  
 R. J. Doerksen,  A. D. Dutoi,  R. G. Edgar,  J. Fosso-Tande,  
 L. Fusti-Molnar,  D. Ghosh,  A. Ghysels,  A. Golubeva-Zadorozhnaya,  
 J. Gonthier,  M. S. Gordon,  S. R. Gwaltney,  G. Hawkins,  J. E. Herr,  
 A. Heyden,  S. Hirata,  E. G. Hohenstein,  G. Kedziora,  F. J. Keil,  
 C. Kelley,  Jihan Kim,  R. A. King,  R. Z. Khaliullin,  P. P. Korambath,  
 W. Kurlancheek,  A. Laurent,  A. M. Lee,  M. S. Lee,  S. V. Levchenko,  
 Ching Yeh Lin,  D. Liotard,  E. Livshits,  R. C. Lochan,  I. Lotan,  
 L. A. Martinez-Martinez,  P. E. Maslen,  N. Nair,  D. P. O'Neill,  
 D. Neuhauser,  E. Neuscamman,  C. M. Oana,  R. Olivares-Amaya,  R. Olson,  
 T. M. Perrine,  B. Peters,  P. A. Pieniazek,  A. Prociuk,  Y. M. Rhee,  
 J. Ritchie,  M. A. Rohrdanz,  E. Rosta,  N. J. Russ,  H. F. Schaefer III,  
 M. W. Schmidt,  N. E. Schultz,  S. Sharma,  N. Shenvi,  C. D. Sherrill,  
 A. C. Simmonett,  A. Sodt,  T. Stein,  D. Stuck,  K. S. Thanthiriwatte,  
 V. Vanovschi,  L. Vogt,  Tao Wang,  A. Warshel,  M. A. Watson,  
 C. F. Williams,  Q. Wu,  X. Xu,  Jun Yang,  W. Zhang,  Yan Zhao

 Please cite Q-Chem as follows:
 Y. Shao et al., Mol. Phys. 113, 184-215 (2015)
 DOI: 10.1080/00268976.2014.952696

 Q-Chem 5.4.0 for Intel X86 EM64T Linux

 Parts of Q-Chem use Armadillo 9.800.1 (Horizon Scraper).
 http://arma.sourceforge.net/

 Q-Chem begins on Sun Jul 10 09:43:17 2022  

 Host: 
0

     Scratch files written to ./qchem3431999//
 May1621 |scratch|qcdevops|jenkins|workspace|build_RNUM    
 Processing $rem in /cm/shared/apps/spack/cpu/opt/spack/linux-centos8-zen2/gcc-10.2.0/qchem-5.4-akfmr7b3t57bfs6qan3padb2wnb2i7cl/config/preferences:
 Processing $rem in /home/theleonzhang/.qchemrc:
 Symmetry turned off for PCM/SM12/SMD calculation
 Core orbitals will be frozen

 Checking the input file for inconsistencies... 	...done.

--------------------------------------------------------------
User input:
--------------------------------------------------------------
$molecule
0 1
C	-0.170896	-0.553189	0.016441
C	0.052604	0.281011	1.115841
C	0.410804	1.617711	0.793141
H	-0.042796	-0.075289	2.152541
C	0.468004	1.830811	-0.596059
S	0.073004	0.357111	-1.470359
C	0.692404	2.668411	1.831041
H	0.582204	2.257311	2.853141
H	-0.000196	3.531411	1.742641
H	1.723704	3.069411	1.742641
C	-0.170896	-1.993889	0.016441
H	-1.234496	-1.994089	-0.171259
H	-0.313196	-2.697689	0.823141
H	-0.006396	-2.512789	-0.916259
H	0.713704	2.747711	-1.145159
$end

$rem
JOBTYPE		SP
EXCHANGE	HF
CORRELATION	pRIMP2
BASIS		cc-pvtz
METHOD		rimp2
AUX_BASIS	rimp2-cc-pvtz
SOLVENT_METHOD	PCM
PURECART	11111
SYMMETRY	false
MEM_TOTAL	110000
SCF_CONVERGENCE = 6
THRESH=10
$end



$solvent
dielectric 4.90
$end
--------------------------------------------------------------
 ----------------------------------------------------------------
             Standard Nuclear Orientation (Angstroms)
    I     Atom           X                Y                Z
 ----------------------------------------------------------------
    1      C      -0.1708960000    -0.5531890000     0.0164410000
    2      C       0.0526040000     0.2810110000     1.1158410000
    3      C       0.4108040000     1.6177110000     0.7931410000
    4      H      -0.0427960000    -0.0752890000     2.1525410000
    5      C       0.4680040000     1.8308110000    -0.5960590000
    6      S       0.0730040000     0.3571110000    -1.4703590000
    7      C       0.6924040000     2.6684110000     1.8310410000
    8      H       0.5822040000     2.2573110000     2.8531410000
    9      H      -0.0001960000     3.5314110000     1.7426410000
   10      H       1.7237040000     3.0694110000     1.7426410000
   11      C      -0.1708960000    -1.9938890000     0.0164410000
   12      H      -1.2344960000    -1.9940890000    -0.1712590000
   13      H      -0.3131960000    -2.6976890000     0.8231410000
   14      H      -0.0063960000    -2.5127890000    -0.9162590000
   15      H       0.7137040000     2.7477110000    -1.1451590000
 ----------------------------------------------------------------
 Nuclear Repulsion Energy =         344.65614572 hartrees
 There are       30 alpha and       30 beta electrons

 Q-Chem warning in module forms1/BasisType.C, line 2236:

 You are not using the predefined 5D/6D in this basis set.

 Requested basis set is cc-pVTZ
 There are 120 shells and 326 basis functions

 Total QAlloc Memory Limit 110000 MB
 Mega-Array Size       188 MB
 MEM_STATIC part       192 MB
 Discretize the solute cavity surface with Lebedev spheres
	Using 110 Lebedev grid points for each H atom
	Using 194 Lebedev grid points for other atoms
	Atomic van der Waals radii will be scaled by 1.20
 Remove points where switching function is < 1.0e-08
 Keep 1056 surface tesserae and discard 1182 interior tesserae
 Molecular Surface Area = 158.447 Angst**2

                       Distance Matrix (Angstroms)
             C (  1)   C (  2)   C (  3)   H (  4)   C (  5)   S (  6)
   C (  2)  1.398042
   C (  3)  2.377908  1.420989
   H (  4)  2.192652  1.100363  2.218101
   C (  5)  2.542991  2.346282  1.406613  3.383628
   S (  6)  1.760315  2.587400  2.612787  3.650450  1.758470
   C (  7)  3.796942  2.573040  1.503498  2.858631  2.577352  4.077377
   H (  8)  4.063611  2.684110  2.163808  2.514456  3.477344  4.750021
   H (  9)  4.437664  3.310705  2.175481  3.630168  2.929295  4.517179
   H ( 10)  4.437624  3.310684  2.175475  3.630107  2.929237  4.517162
   C ( 11)  1.440700  2.536494  3.739691  2.874084  3.925771  2.792358
   H ( 12)  1.800741  2.913646  4.084382  3.240677  4.208185  2.987534
   H ( 13)  2.295625  3.015317  4.375815  2.952525  4.809544  3.839413
   H ( 14)  2.176470  3.455174  4.489670  3.919217  4.381146  2.923980
   H ( 15)  3.609401  3.410833  2.263991  4.406410  1.096624  2.496241
             C (  7)   H (  8)   H (  9)   H ( 10)   C ( 11)   H ( 12)
   H (  8)  1.107175
   H (  9)  1.110080  1.787661
   H ( 10)  1.110043  1.787663  1.784734
   C ( 11)  5.076918  5.165920  5.791187  5.675058
   H ( 12)  5.427804  5.524653  5.976425  6.168711  1.080035
   H ( 13)  5.551768  5.429058  6.304374  6.184972  1.079976  1.527311
   H ( 14)  5.905998  6.108083  6.603192  6.420588  1.079929  1.527188
   H ( 15)  2.977332  4.030408  3.076236  3.076196  4.961311  5.218106
             H ( 13)   H ( 14)
   H ( 14)  1.775902
   H ( 15)  5.880571  5.314490
 
 Requested basis set is rimp2-cc-pVTZ
 There are 250 shells and 848 basis functions
 A cutoff of  1.0D-10 yielded   6163 shell pairs
 There are     45151 function pairs (     58053 Cartesian)
 Smallest overlap matrix eigenvalue = 9.84E-05

 Scale SEOQF with 1.000000e-01/1.000000e-01/1.000000e-01

 Standard Electronic Orientation quadrupole field applied
 Nucleus-field energy     =     0.0000000021 hartrees
 Guess from superposition of atomic densities
 Warning:  Energy on first SCF cycle will be non-variational
 SAD guess density has 60.000000 electrons

 -----------------------------------------------------------------------
  General SCF calculation program by
  Eric Jon Sundstrom, Paul Horn, Yuezhi Mao, Dmitri Zuev, Alec White,
  David Stuck, Shaama M.S., Shane Yost, Joonho Lee, David Small,
  Daniel Levine, Susi Lehtola, Hugh Burton, Evgeny Epifanovsky,
  Bang C. Huynh
 -----------------------------------------------------------------------
 Hartree-Fock
 A restricted SCF calculation will be
 performed using DIIS
 SCF converges when DIIS error is below 1.0e-06
 ---------------------------------------
  Cycle       Energy         DIIS error
 ---------------------------------------
    1    -632.0983596942      2.92e-02  
    2    -629.3357665732      1.95e-03  
    3    -629.4064111095      7.15e-04  
    4    -629.4143002006      3.63e-04  
    5    -629.4166217731      6.35e-05  
    6    -629.4167579235      2.63e-05  
    7    -629.4167910288      1.13e-05  
    8    -629.4168000367      5.20e-06  
    9    -629.4168015313      1.70e-06  
   10    -629.4168017245      6.66e-07  Convergence criterion met
 ---------------------------------------
 SCF time:   CPU 143.05s  wall 144.00s 

************** Final PCM Free Energy Summary **************
 G_electrostatic  =      -0.00577653 hartree =      -3.62482464 kcal/mol
 G_cavitation     =       0.00000000 hartree =       0.00000000 kcal/mol
 G_dispersion     =       0.00000000 hartree =       0.00000000 kcal/mol
 G_repulsion      =       0.00000000 hartree =       0.00000000 kcal/mol
 --------------------------------------------------
 Non-electrostatic Free Energy =       0.00000000 hartree =       0.00000000 kcal/mol
 Total                         =      -0.00577653 hartree =      -3.62482464 kcal/mol
 --------------------------------------------------
 SCF Energy (H0 + V/2)                       =    -629.41680172 
 Solute Internal Energy (H0)                 =    -629.41102520 
 Total Free Energy (H0 + V/2 + non-elec)     =    -629.41680172 hartree
                                             = -394965.00428863 kcal/mol
***********************************************************

 SCF   energy in the final basis set =     -629.4168017245
 Total energy in the final basis set =     -629.4168017245


 --------------------------------------------------------------
  Generalized many-body perturbation theory program
  by Joonho Lee, Fazle Rob, Xintian Feng, Evgeny Epifanovsky

 No regularization used 
 (reg. param. = 0.0000e+00)
  (P|Q)^-1/2 Time:  CPU 0.48 s  wall 0.48 s

 In RI-MP2 calculation: 
 # of frozen core orbitals: 11

 Components of the RIMP2 correlation energy:
        aaaa    correlation energy =        -0.1453311821 a.u.
        abab    correlation energy =        -0.8861533429 a.u.
        bbbb    correlation energy =        -0.1453311821 a.u.
        non-Brillouin singles      =        -0.0000000000 a.u.
        total same-spin energy     =        -0.2906623642 a.u.
        total opposite-spin energy =        -0.8861533429 a.u.

 Total  RIMP2   correlation energy =        -1.1768157071 a.u.
        RIMP2         total energy =      -630.5936174315 a.u.

 RI-MP2 Energy Time:  CPU 11.02 s  wall 11.04 s
 
 --------------------------------------------------------------
 
                    Orbital Energies (a.u.)
 --------------------------------------------------------------
 
 Alpha MOs
 -- Occupied --
-91.9786 -11.2824 -11.2507 -11.2468 -11.2263 -11.2238 -11.2199  -8.9785
 -6.6595  -6.6589  -6.6583  -1.1603  -1.0557  -0.9965  -0.9432  -0.8824
 -0.7444  -0.7186  -0.6485  -0.5865  -0.5736  -0.5682  -0.5533  -0.5464
 -0.5088  -0.4938  -0.4612  -0.4571  -0.3384  -0.2881
 -- Virtual --
  0.1100   0.1444   0.1480   0.1747   0.1891   0.1978   0.2061   0.2142
  0.2247   0.2404   0.2473   0.2563   0.2940   0.3260   0.3422   0.3560
  0.3849   0.3900   0.4023   0.4216   0.4368   0.4629   0.4693   0.4894
  0.4991   0.5119   0.5235   0.5328   0.5338   0.5622   0.5780   0.5928
  0.6012   0.6091   0.6144   0.6224   0.6352   0.6387   0.6410   0.6486
  0.6602   0.6672   0.6865   0.6968   0.7237   0.7424   0.7712   0.7944
  0.8096   0.8312   0.8393   0.8522   0.8703   0.8934   0.9014   0.9307
  0.9453   0.9762   1.0071   1.0177   1.0303   1.0610   1.0648   1.0753
  1.0876   1.0947   1.1052   1.1178   1.1266   1.1674   1.1714   1.2074
  1.2348   1.2472   1.2619   1.2685   1.2700   1.2885   1.3174   1.3383
  1.3679   1.3827   1.3925   1.4102   1.4361   1.4426   1.4460   1.4820
  1.4956   1.5059   1.5121   1.5332   1.5451   1.5660   1.5708   1.5955
  1.6112   1.6305   1.6410   1.6770   1.6896   1.7040   1.7234   1.7468
  1.7695   1.7888   1.8064   1.8368   1.8718   1.9141   1.9414   1.9505
  2.0246   2.0618   2.1024   2.1222   2.1771   2.1989   2.2296   2.2562
  2.2797   2.2971   2.3259   2.4139   2.4504   2.4610   2.5015   2.5338
  2.5622   2.6137   2.6282   2.6518   2.6760   2.7102   2.7268   2.7317
  2.7584   2.7686   2.7819   2.7919   2.8186   2.8354   2.8518   2.8696
  2.9146   2.9211   2.9611   2.9729   3.0189   3.0381   3.0503   3.0715
  3.0911   3.1135   3.1284   3.1343   3.1523   3.1554   3.1758   3.1823
  3.2072   3.2411   3.2619   3.2703   3.2924   3.3113   3.3208   3.3272
  3.3406   3.3537   3.3823   3.3883   3.3931   3.4012   3.4343   3.4366
  3.4483   3.4570   3.4832   3.4895   3.5025   3.5133   3.5280   3.5311
  3.5726   3.5977   3.6156   3.6293   3.6325   3.6531   3.6624   3.6898
  3.6924   3.7076   3.7154   3.7490   3.7565   3.7733   3.7931   3.8033
  3.8287   3.8315   3.8613   3.8885   3.9188   3.9328   3.9430   3.9581
  3.9650   3.9920   4.0170   4.0285   4.0551   4.0732   4.0854   4.1073
  4.1295   4.1439   4.1805   4.2022   4.2136   4.2393   4.2523   4.2659
  4.2864   4.2948   4.3112   4.3393   4.3479   4.3606   4.4007   4.4030
  4.4093   4.4227   4.4389   4.4504   4.4664   4.5034   4.5559   4.5714
  4.6034   4.6264   4.6354   4.6698   4.7076   4.7249   4.7572   4.7853
  4.8201   4.8388   4.8593   4.8864   4.9236   4.9605   5.0773   5.0992
  5.1108   5.1400   5.1634   5.1939   5.2090   5.2652   5.2872   5.3260
  5.3715   5.4068   5.4247   5.4444   5.4830   5.5316   5.5509   5.5668
  5.5798   5.6218   5.6309   5.6629   5.7012   5.8156   5.8309   5.8465
  5.9478   6.0225   6.0906   6.1580   6.2280   6.2527   6.2979   6.3897
  6.4533   6.5739   9.2043  11.3798  12.9217  13.8271  14.1705  14.4926
 --------------------------------------------------------------
 
          Ground-State Mulliken Net Atomic Charges

     Atom                 Charge (a.u.)
  ----------------------------------------
      1 C                     0.045259
      2 C                    -0.289925
      3 C                     0.046137
      4 H                     0.177918
      5 C                    -0.275585
      6 S                     0.000227
      7 C                    -0.272974
      8 H                     0.101339
      9 H                     0.107112
     10 H                     0.107017
     11 C                    -0.380152
     12 H                     0.136574
     13 H                     0.163909
     14 H                     0.139452
     15 H                     0.193691
  ----------------------------------------
  Sum of atomic charges =     0.000000

 -----------------------------------------------------------------
                    Cartesian Multipole Moments
 -----------------------------------------------------------------
    Charge (ESU x 10^10)
                -0.0000
    Dipole Moment (Debye)
         X      -0.4122      Y      -0.6161      Z       1.2814
       Tot       1.4803
    Quadrupole Moments (Debye-Ang)
        XX     -53.6251     XY       3.7579     YY     -42.4334
        XZ      -0.0633     YZ       0.4074     ZZ     -48.5187
    Octopole Moments (Debye-Ang^2)
       XXX     -27.7120    XXY     -28.9029    XYY      -7.4216
       YYY     -80.4337    XXZ      -1.9208    XYZ      -0.1606
       YYZ      -3.9189    XZZ      -7.6516    YZZ     -25.1429
       ZZZ       0.9686
    Hexadecapole Moments (Debye-Ang^3)
      XXXX    -118.3254   XXXY     -84.6623   XXYY    -159.0088
      XYYY     -64.2048   YYYY    -774.5912   XXXZ     -23.4655
      XXYZ     -30.5726   XYYZ     -12.6075   YYYZ    -102.4811
      XXZZ    -107.6262   XYZZ     -22.7224   YYZZ    -204.4860
      XZZZ     -26.9109   YZZZ     -98.5465   ZZZZ    -483.8771
 -----------------------------------------------------------------
 Total job time:  155.64s(wall), 154.42s(cpu) 
 Sun Jul 10 09:45:53 2022

        *************************************************************
        *                                                           *
        *  Thank you very much for using Q-Chem.  Have a nice day.  *
        *                                                           *
        *************************************************************


remove work dirs ./qchem3431999.0 -- ./qchem3431999.-1
rm -rf ./qchem3431999
