You are running Q-Chem version: 5.4.0

#
# job setting
#
local host:  exp-7-01
current dir: /expanse/lustre/scratch/theleonzhang/temp_project/Hydrogenated_Impropers_Test
input file:  Methylthiophene_Phi_40_Theta_350_Methylthiophene_Hydrogenated_Improper.qcin
output file: 
nprocs     : 0
nthreads   : 1
#
# qchem installation setting
#
QC:          /cm/shared/apps/spack/cpu/opt/spack/linux-centos8-zen2/gcc-10.2.0/qchem-5.4-akfmr7b3t57bfs6qan3padb2wnb2i7cl
QCAUX:       /cm/shared/apps/spack/cpu/opt/spack/linux-centos8-zen2/gcc-10.2.0/qchem-5.4-akfmr7b3t57bfs6qan3padb2wnb2i7cl/qcaux
QCPROG:      /cm/shared/apps/spack/cpu/opt/spack/linux-centos8-zen2/gcc-10.2.0/qchem-5.4-akfmr7b3t57bfs6qan3padb2wnb2i7cl/exe/qcprog.exe_s
QCPROG_S:    /cm/shared/apps/spack/cpu/opt/spack/linux-centos8-zen2/gcc-10.2.0/qchem-5.4-akfmr7b3t57bfs6qan3padb2wnb2i7cl/exe/qcprog.exe_s
PARALLEL:    -DSERIAL
QCMPI:       mpich
#
# qchem directory setting
#
qcrun:       qchem931591
QCSCRATCH:   .
QCLOCALSCR:  
QCTMPDIR:    .
QCFILEPREF:  ./qchem931591
QCSAVEDIR:   
workdirs:    ./qchem931591
workdir0:    ./qchem931591
partmpdirs =  
#
# parallel setting
#
QCRSH:           ssh
QCMPI:           mpich
QCMPIRUN:        /cm/shared/apps/spack/cpu/opt/spack/linux-centos8-zen2/gcc-10.2.0/qchem-5.4-akfmr7b3t57bfs6qan3padb2wnb2i7cl/bin/mpi/mpirun_qchem
QCMACHINEFILE:   ./qchem931591/hostfile

#
# env setting
#
exported envs:   QC QCAUX QCSCRATCH QCRUNNAME QCFILEPREF QCPROG QCPROG_S GUIFILE

Running Job 1 of 1 Methylthiophene_Phi_40_Theta_350_Methylthiophene_Hydrogenated_Improper.qcin
qchem Methylthiophene_Phi_40_Theta_350_Methylthiophene_Hydrogenated_Improper.qcin_931591.0 ./qchem931591/ 0
/cm/shared/apps/spack/cpu/opt/spack/linux-centos8-zen2/gcc-10.2.0/qchem-5.4-akfmr7b3t57bfs6qan3padb2wnb2i7cl/exe/qcprog.exe_s Methylthiophene_Phi_40_Theta_350_Methylthiophene_Hydrogenated_Improper.qcin_931591.0 ./qchem931591/
                  Welcome to Q-Chem
     A Quantum Leap Into The Future Of Chemistry


 Q-Chem 5.4, Q-Chem, Inc., Pleasanton, CA (2021)

 License issued to: University of California, San Diego (site)

 E. Epifanovsky,  A. T. B. Gilbert,  Xintian Feng,  Joonho Lee,  Yuezhi Mao,  
 N. Mardirossian,  P. Pokhilko,  A. White,  M. Wormit,  M. P. Coons,  
 A. L. Dempwolff,  Zhengting Gan,  D. Hait,  P. R. Horn,  L. D. Jacobson,  
 I. Kaliman,  J. Kussmann,  A. W. Lange,  Ka Un Lao,  D. S. Levine,  Jie Liu,  
 S. C. McKenzie,  A. F. Morrison,  K. Nanda,  F. Plasser,  D. R. Rehn,  
 M. L. Vidal,  Zhi-Qiang You,  Ying Zhu,  B. Alam,  B. Albrecht,  
 A. Aldossary,  E. Alguire,  J. H. Andersen,  D. Barton,  K. Begam,  A. Behn,  
 Y. A. Bernard,  E. J. Berquist,  H. Burton,  A. Carreras,  K. Carter-Fenk,  
 R. Chakraborty,  A. D. Chien,  K. D. Closser,  V. Cofer-Shabica,  
 S. Dasgupta,  Jia Deng,  M. de Wergifosse,  M. Diedenhofen,  Hainam Do,  
 S. Ehlert,  Po-Tung Fang,  S. Fatehi,  Qingguo Feng,  J. Gayvert,  
 Qinghui Ge,  G. Gidofalvi,  M. Goldey,  J. Gomes,  C. Gonzalez-Espinoza,  
 S. Gulania,  A. Gunina,  M. W. D. Hanson-Heine,  P. H. P. Harbach,  
 A. W. Hauser,  M. F. Herbst,  M. Hernandez Vera,  M. Hodecker,  
 Z. C. Holden,  S. Houck,  Xunkun Huang,  Kerwin Hui,  B. C. Huynh,  
 M. Ivanov,  Hyunjun Ji,  Hanjie Jiang,  B. Kaduk,  S. Kaehler,  
 K. Khistyaev,  Jaehoon Kim,  P. Klunzinger,  Z. Koczor-Benda,  
 Joong Hoon Koh,  D. Kosenkov,  L. Koulias,  T. Kowalczyk,  C. M. Krauter,  
 K. Kue,  A. Kunitsa,  T. Kus,  A. Landau,  K. V. Lawler,  D. Lefrancois,  
 S. Lehtola,  Rain Li,  Yi-Pei Li,  Jiashu Liang,  M. Liebenthal,  
 Hung-Hsuan Lin,  You-Sheng Lin,  Fenglai Liu,  Kuan-Yu Liu,  
 M. Loipersberger,  A. Luenser,  A. Manjanath,  P. Manohar,  E. Mansoor,  
 S. F. Manzer,  Shan-Ping Mao,  A. V. Marenich,  T. Markovich,  S. Mason,  
 S. A. Maurer,  P. F. McLaughlin,  M. F. S. J. Menger,  J.-M. Mewes,  
 S. A. Mewes,  P. Morgante,  J. W. Mullinax,  T. S. Nguyen-Beck,  
 K. J. Oosterbaan,  G. Paran,  Alexander C. Paul,  Suranjan K. Paul,  
 F. Pavosevic,  Zheng Pei,  S. Prager,  E. I. Proynov,  E. Ramos,  B. Rana,  
 A. E. Rask,  A. Rettig,  R. M. Richard,  F. Rob,  E. Rossomme,  T. Scheele,  
 M. Scheurer,  M. Schneider,  N. Sergueev,  S. M. Sharada,  W. Skomorowski,  
 D. W. Small,  C. J. Stein,  Yu-Chuan Su,  E. J. Sundstrom,  Zhen Tao,  
 J. Thirman,  T. Tsuchimochi,  N. M. Tubman,  S. P. Veccham,  O. Vydrov,  
 J. Wenzel,  J. Witte,  A. Yamada,  Kun Yao,  S. Yeganeh,  S. R. Yost,  
 A. Zech,  Igor Ying Zhang,  Xing Zhang,  Yu Zhang,  D. Zuev,  
 A. Aspuru-Guzik,  A. T. Bell,  N. A. Besley,  K. B. Bravaya,  B. R. Brooks,  
 D. Casanova,  Jeng-Da Chai,  S. Coriani,  C. J. Cramer,  
 A. E. DePrince, III,  R. A. DiStasio Jr.,  A. Dreuw,  B. D. Dunietz,  
 T. R. Furlani,  W. A. Goddard III,  S. Grimme,  S. Hammes-Schiffer,  
 T. Head-Gordon,  W. J. Hehre,  Chao-Ping Hsu,  T.-C. Jagau,  Yousung Jung,  
 A. Klamt,  Jing Kong,  D. S. Lambrecht,  WanZhen Liang,  N. J. Mayhall,  
 C. W. McCurdy,  J. B. Neaton,  C. Ochsenfeld,  J. A. Parkhill,  R. Peverati,  
 V. A. Rassolov,  Yihan Shao,  L. V. Slipchenko,  T. Stauch,  R. P. Steele,  
 J. E. Subotnik,  A. J. W. Thom,  A. Tkatchenko,  D. G. Truhlar,  
 T. Van Voorhis,  T. A. Wesolowski,  K. B. Whaley,  H. L. Woodcock III,  
 P. M. Zimmerman,  S. Faraji,  P. M. W. Gill,  M. Head-Gordon,  
 J. M. Herbert,  A. I. Krylov

 Contributors to earlier versions of Q-Chem not listed above: 
 R. D. Adamson,  B. Austin,  R. Baer,  J. Baker,  G. J. O. Beran,  
 K. Brandhorst,  S. T. Brown,  E. F. C. Byrd,  A. K. Chakraborty,  
 G. K. L. Chan,  Chun-Min Chang,  Yunqing Chen,  C.-L. Cheng,  
 Siu Hung Chien,  D. M. Chipman,  D. L. Crittenden,  H. Dachsel,  
 R. J. Doerksen,  A. D. Dutoi,  R. G. Edgar,  J. Fosso-Tande,  
 L. Fusti-Molnar,  D. Ghosh,  A. Ghysels,  A. Golubeva-Zadorozhnaya,  
 J. Gonthier,  M. S. Gordon,  S. R. Gwaltney,  G. Hawkins,  J. E. Herr,  
 A. Heyden,  S. Hirata,  E. G. Hohenstein,  G. Kedziora,  F. J. Keil,  
 C. Kelley,  Jihan Kim,  R. A. King,  R. Z. Khaliullin,  P. P. Korambath,  
 W. Kurlancheek,  A. Laurent,  A. M. Lee,  M. S. Lee,  S. V. Levchenko,  
 Ching Yeh Lin,  D. Liotard,  E. Livshits,  R. C. Lochan,  I. Lotan,  
 L. A. Martinez-Martinez,  P. E. Maslen,  N. Nair,  D. P. O'Neill,  
 D. Neuhauser,  E. Neuscamman,  C. M. Oana,  R. Olivares-Amaya,  R. Olson,  
 T. M. Perrine,  B. Peters,  P. A. Pieniazek,  A. Prociuk,  Y. M. Rhee,  
 J. Ritchie,  M. A. Rohrdanz,  E. Rosta,  N. J. Russ,  H. F. Schaefer III,  
 M. W. Schmidt,  N. E. Schultz,  S. Sharma,  N. Shenvi,  C. D. Sherrill,  
 A. C. Simmonett,  A. Sodt,  T. Stein,  D. Stuck,  K. S. Thanthiriwatte,  
 V. Vanovschi,  L. Vogt,  Tao Wang,  A. Warshel,  M. A. Watson,  
 C. F. Williams,  Q. Wu,  X. Xu,  Jun Yang,  W. Zhang,  Yan Zhao

 Please cite Q-Chem as follows:
 Y. Shao et al., Mol. Phys. 113, 184-215 (2015)
 DOI: 10.1080/00268976.2014.952696

 Q-Chem 5.4.0 for Intel X86 EM64T Linux

 Parts of Q-Chem use Armadillo 9.800.1 (Horizon Scraper).
 http://arma.sourceforge.net/

 Q-Chem begins on Sun Jul 10 10:01:00 2022  

 Host: 
0

     Scratch files written to ./qchem931591//
 May1621 |scratch|qcdevops|jenkins|workspace|build_RNUM    
 Processing $rem in /cm/shared/apps/spack/cpu/opt/spack/linux-centos8-zen2/gcc-10.2.0/qchem-5.4-akfmr7b3t57bfs6qan3padb2wnb2i7cl/config/preferences:
 Processing $rem in /home/theleonzhang/.qchemrc:
 Symmetry turned off for PCM/SM12/SMD calculation
 Core orbitals will be frozen

 Checking the input file for inconsistencies... 	...done.

--------------------------------------------------------------
User input:
--------------------------------------------------------------
$molecule
0 1
C	-0.431363	-0.417597	0.013624
C	0.123737	0.243903	1.113024
C	1.013337	1.304103	0.790324
H	-0.113263	-0.038597	2.149724
C	1.155237	1.473103	-0.598876
S	0.174437	0.304303	-1.473176
C	1.712537	2.137303	1.828224
H	1.438937	1.811303	2.850324
H	1.449537	3.212103	1.739824
H	2.816737	2.064903	1.739824
C	-0.431363	-1.858297	0.013624
H	-1.494963	-1.857997	0.201024
H	-0.573563	-2.562097	-0.793176
H	-0.266863	-2.377197	0.946324
H	1.765337	2.200203	-1.147976
$end

$rem
JOBTYPE		SP
EXCHANGE	HF
CORRELATION	pRIMP2
BASIS		cc-pvtz
METHOD		rimp2
AUX_BASIS	rimp2-cc-pvtz
SOLVENT_METHOD	PCM
PURECART	11111
SYMMETRY	false
MEM_TOTAL	110000
SCF_CONVERGENCE = 6
THRESH=10
$end



$solvent
dielectric 4.90
$end
--------------------------------------------------------------
 ----------------------------------------------------------------
             Standard Nuclear Orientation (Angstroms)
    I     Atom           X                Y                Z
 ----------------------------------------------------------------
    1      C      -0.4313630000    -0.4175970000     0.0136240000
    2      C       0.1237370000     0.2439030000     1.1130240000
    3      C       1.0133370000     1.3041030000     0.7903240000
    4      H      -0.1132630000    -0.0385970000     2.1497240000
    5      C       1.1552370000     1.4731030000    -0.5988760000
    6      S       0.1744370000     0.3043030000    -1.4731760000
    7      C       1.7125370000     2.1373030000     1.8282240000
    8      H       1.4389370000     1.8113030000     2.8503240000
    9      H       1.4495370000     3.2121030000     1.7398240000
   10      H       2.8167370000     2.0649030000     1.7398240000
   11      C      -0.4313630000    -1.8582970000     0.0136240000
   12      H      -1.4949630000    -1.8579970000     0.2010240000
   13      H      -0.5735630000    -2.5620970000    -0.7931760000
   14      H      -0.2668630000    -2.3771970000     0.9463240000
   15      H       1.7653370000     2.2002030000    -1.1479760000
 ----------------------------------------------------------------
 Nuclear Repulsion Energy =         346.66448165 hartrees
 There are       30 alpha and       30 beta electrons

 Q-Chem warning in module forms1/BasisType.C, line 2236:

 You are not using the predefined 5D/6D in this basis set.

 Requested basis set is cc-pVTZ
 There are 120 shells and 326 basis functions

 Total QAlloc Memory Limit 110000 MB
 Mega-Array Size       188 MB
 MEM_STATIC part       192 MB
 Discretize the solute cavity surface with Lebedev spheres
	Using 110 Lebedev grid points for each H atom
	Using 194 Lebedev grid points for other atoms
	Atomic van der Waals radii will be scaled by 1.20
 Remove points where switching function is < 1.0e-08
 Keep 1053 surface tesserae and discard 1185 interior tesserae
 Molecular Surface Area = 157.629 Angst**2

                       Distance Matrix (Angstroms)
             C (  1)   C (  2)   C (  3)   H (  4)   C (  5)   S (  6)
   C (  2)  1.397998
   C (  3)  2.377955  1.421108
   H (  4)  2.192659  1.100328  2.218116
   C (  5)  2.543069  2.346386  1.406618  3.383656
   S (  6)  1.760315  2.587402  2.612812  3.650446  1.758540
   C (  7)  3.796919  2.573084  1.503442  2.858575  2.577316  4.077362
   H (  8)  4.063605  2.684158  2.163790  2.514417  3.477333  4.750017
   H (  9)  4.437598  3.310715  2.175382  3.630071  2.929207  4.517140
   H ( 10)  4.437649  3.310766  2.175458  3.630101  2.929220  4.517171
   C ( 11)  1.440700  2.436403  3.562470  2.824078  3.740412  2.693401
   H ( 12)  1.800310  2.805337  4.078936  3.002789  4.331239  3.203964
   H ( 13)  2.295654  3.463158  4.469142  3.903920  4.394240  3.039433
   H ( 14)  2.176470  2.655282  3.900669  2.634543  4.385752  3.638567
   H ( 15)  3.609388  3.410877  2.263958  4.406380  1.096543  2.496228
             C (  7)   H (  8)   H (  9)   H ( 10)   C ( 11)   H ( 12)
   H (  8)  1.107168
   H (  9)  1.110035  1.787614
   H ( 10)  1.110096  1.787696  1.784742
   C ( 11)  4.884045  5.001085  5.676840  5.377864
   H ( 12)  5.375710  5.393544  6.061675  6.028914  1.079983
   H ( 13)  5.846567  6.037539  6.621964  6.270514  1.080038  1.527471
   H ( 14)  5.007642  4.906985  5.900504  5.465390  1.079929  1.527505
   H ( 15)  2.977333  4.030407  3.076209  3.076221  4.758805  5.377578
             H ( 13)   H ( 14)
   H ( 14)  1.775982
   H ( 15)  5.317503  5.428492
 
 Requested basis set is rimp2-cc-pVTZ
 There are 250 shells and 848 basis functions
 A cutoff of  1.0D-10 yielded   6227 shell pairs
 There are     45735 function pairs (     58833 Cartesian)
 Smallest overlap matrix eigenvalue = 1.32E-04

 Scale SEOQF with 1.000000e-01/1.000000e-01/1.000000e-01

 Standard Electronic Orientation quadrupole field applied
 Nucleus-field energy     =     0.0000000003 hartrees
 Guess from superposition of atomic densities
 Warning:  Energy on first SCF cycle will be non-variational
 SAD guess density has 60.000000 electrons

 -----------------------------------------------------------------------
  General SCF calculation program by
  Eric Jon Sundstrom, Paul Horn, Yuezhi Mao, Dmitri Zuev, Alec White,
  David Stuck, Shaama M.S., Shane Yost, Joonho Lee, David Small,
  Daniel Levine, Susi Lehtola, Hugh Burton, Evgeny Epifanovsky,
  Bang C. Huynh
 -----------------------------------------------------------------------
 Hartree-Fock
 A restricted SCF calculation will be
 performed using DIIS
 SCF converges when DIIS error is below 1.0e-06
 ---------------------------------------
  Cycle       Energy         DIIS error
 ---------------------------------------
    1    -632.1288278586      2.93e-02  
    2    -629.3039926392      1.91e-03  
    3    -629.3736963780      6.47e-04  
    4    -629.3809134293      3.24e-04  
    5    -629.3828058559      6.51e-05  
    6    -629.3829445482      2.57e-05  
    7    -629.3829800780      1.23e-05  
    8    -629.3829904171      5.17e-06  
    9    -629.3829922861      2.22e-06  
   10    -629.3829925519      6.28e-07  Convergence criterion met
 ---------------------------------------
 SCF time:   CPU 157.68s  wall 159.00s 

************** Final PCM Free Energy Summary **************
 G_electrostatic  =      -0.00543922 hartree =      -3.41315949 kcal/mol
 G_cavitation     =       0.00000000 hartree =       0.00000000 kcal/mol
 G_dispersion     =       0.00000000 hartree =       0.00000000 kcal/mol
 G_repulsion      =       0.00000000 hartree =       0.00000000 kcal/mol
 --------------------------------------------------
 Non-electrostatic Free Energy =       0.00000000 hartree =       0.00000000 kcal/mol
 Total                         =      -0.00543922 hartree =      -3.41315949 kcal/mol
 --------------------------------------------------
 SCF Energy (H0 + V/2)                       =    -629.38299255 
 Solute Internal Energy (H0)                 =    -629.37755334 
 Total Free Energy (H0 + V/2 + non-elec)     =    -629.38299255 hartree
                                             = -394943.78871261 kcal/mol
***********************************************************

 SCF   energy in the final basis set =     -629.3829925519
 Total energy in the final basis set =     -629.3829925519


 --------------------------------------------------------------
  Generalized many-body perturbation theory program
  by Joonho Lee, Fazle Rob, Xintian Feng, Evgeny Epifanovsky

 No regularization used 
 (reg. param. = 0.0000e+00)
  (P|Q)^-1/2 Time:  CPU 0.51 s  wall 0.51 s

 In RI-MP2 calculation: 
 # of frozen core orbitals: 11

 Components of the RIMP2 correlation energy:
        aaaa    correlation energy =        -0.1468798426 a.u.
        abab    correlation energy =        -0.8919602315 a.u.
        bbbb    correlation energy =        -0.1468798426 a.u.
        non-Brillouin singles      =        -0.0000000000 a.u.
        total same-spin energy     =        -0.2937596852 a.u.
        total opposite-spin energy =        -0.8919602315 a.u.

 Total  RIMP2   correlation energy =        -1.1857199168 a.u.
        RIMP2         total energy =      -630.5687124686 a.u.

 RI-MP2 Energy Time:  CPU 12.18 s  wall 12.23 s
 
 --------------------------------------------------------------
 
                    Orbital Energies (a.u.)
 --------------------------------------------------------------
 
 Alpha MOs
 -- Occupied --
-91.9741 -11.2683 -11.2607 -11.2478 -11.2350 -11.2273 -11.2121  -8.9745
 -6.6554  -6.6547  -6.6542  -1.1637  -1.0541  -0.9969  -0.9401  -0.8828
 -0.7450  -0.7230  -0.6432  -0.5858  -0.5773  -0.5684  -0.5532  -0.5436
 -0.5135  -0.4939  -0.4580  -0.4393  -0.3367  -0.2857
 -- Virtual --
  0.0866   0.1445   0.1527   0.1756   0.1861   0.1891   0.2098   0.2171
  0.2229   0.2406   0.2478   0.2576   0.2925   0.3114   0.3465   0.3501
  0.3772   0.3915   0.4067   0.4250   0.4387   0.4618   0.4660   0.4735
  0.4913   0.4978   0.5197   0.5287   0.5463   0.5605   0.5685   0.5887
  0.5926   0.6079   0.6112   0.6246   0.6346   0.6400   0.6462   0.6483
  0.6615   0.6732   0.6805   0.6913   0.7020   0.7482   0.7606   0.7790
  0.8012   0.8120   0.8397   0.8632   0.8735   0.8889   0.9160   0.9264
  0.9445   0.9722   1.0154   1.0234   1.0342   1.0569   1.0630   1.0753
  1.0879   1.0918   1.1118   1.1264   1.1519   1.1617   1.1960   1.1970
  1.2300   1.2402   1.2575   1.2607   1.2753   1.3127   1.3182   1.3393
  1.3401   1.3861   1.3958   1.4050   1.4286   1.4381   1.4521   1.4666
  1.4786   1.4892   1.5109   1.5295   1.5376   1.5603   1.5778   1.5867
  1.5948   1.6261   1.6434   1.6644   1.6863   1.6959   1.7238   1.7479
  1.7843   1.7853   1.8020   1.8173   1.8718   1.9168   1.9415   1.9823
  2.0027   2.0396   2.0683   2.1359   2.1679   2.1818   2.2106   2.2242
  2.2655   2.2736   2.3268   2.4020   2.4157   2.4906   2.5355   2.5495
  2.5664   2.5878   2.6448   2.6617   2.6737   2.6956   2.7076   2.7388
  2.7506   2.7647   2.7873   2.7926   2.8226   2.8352   2.8466   2.8891
  2.9003   2.9353   2.9686   2.9830   2.9997   3.0272   3.0580   3.0893
  3.1014   3.1127   3.1232   3.1505   3.1570   3.1662   3.1689   3.1900
  3.2026   3.2456   3.2562   3.2725   3.2868   3.2981   3.3079   3.3262
  3.3386   3.3507   3.3663   3.3885   3.4018   3.4071   3.4191   3.4252
  3.4391   3.4636   3.4891   3.5001   3.5121   3.5364   3.5428   3.5572
  3.5852   3.5995   3.6107   3.6285   3.6296   3.6500   3.6620   3.6776
  3.6951   3.7173   3.7285   3.7400   3.7789   3.7810   3.7864   3.8096
  3.8215   3.8354   3.8563   3.8871   3.9195   3.9407   3.9535   3.9651
  3.9818   3.9956   4.0100   4.0298   4.0440   4.0585   4.1026   4.1207
  4.1358   4.1634   4.1971   4.2000   4.2088   4.2287   4.2507   4.2676
  4.2808   4.3080   4.3154   4.3395   4.3483   4.3689   4.3732   4.4026
  4.4069   4.4186   4.4445   4.4662   4.4907   4.5216   4.5474   4.5674
  4.6204   4.6391   4.6444   4.6913   4.7055   4.7239   4.7565   4.7849
  4.8392   4.8474   4.8716   4.8928   4.9224   4.9355   5.0654   5.0865
  5.1059   5.1269   5.1371   5.1946   5.2051   5.2600   5.2875   5.3211
  5.3699   5.3983   5.4139   5.4459   5.4772   5.5070   5.5491   5.5566
  5.5811   5.6224   5.6506   5.6886   5.7081   5.8081   5.8320   5.8563
  5.9141   5.9653   6.0319   6.1553   6.2284   6.2372   6.2762   6.3704
  6.4114   6.4768   9.2364  11.5562  12.8419  13.6404  14.1707  14.3388
 --------------------------------------------------------------
 
          Ground-State Mulliken Net Atomic Charges

     Atom                 Charge (a.u.)
  ----------------------------------------
      1 C                     0.000933
      2 C                    -0.254171
      3 C                     0.038362
      4 H                     0.178014
      5 C                    -0.246170
      6 S                     0.004529
      7 C                    -0.269489
      8 H                     0.101396
      9 H                     0.107106
     10 H                     0.105975
     11 C                    -0.386032
     12 H                     0.130013
     13 H                     0.158881
     14 H                     0.138232
     15 H                     0.192420
  ----------------------------------------
  Sum of atomic charges =     0.000000

 -----------------------------------------------------------------
                    Cartesian Multipole Moments
 -----------------------------------------------------------------
    Charge (ESU x 10^10)
                -0.0000
    Dipole Moment (Debye)
         X       0.4328      Y      -0.2672      Z       1.6856
       Tot       1.7607
    Quadrupole Moments (Debye-Ang)
        XX     -50.5340     XY       5.7864     YY     -46.2709
        XZ       0.1593     YZ       0.1129     ZZ     -48.2046
    Octopole Moments (Debye-Ang^2)
       XXX     -63.6902    XXY     -15.6776    XYY     -17.6657
       YYY     -63.1660    XXZ      -3.4439    XYZ      -2.1002
       YYZ      -4.1303    XZZ     -19.5551    YZZ     -19.0366
       ZZZ       1.7390
    Hexadecapole Moments (Debye-Ang^3)
      XXXX    -314.3445   XXXY    -158.7358   XXYY    -144.7527
      XYYY    -146.4038   YYYY    -585.1681   XXXZ     -61.7643
      XXYZ     -26.7281   XYYZ     -23.0583   YYYZ     -72.9507
      XXZZ    -134.1448   XYZZ     -45.2191   YYZZ    -174.5712
      XZZZ     -65.1989   YZZZ     -76.0680   ZZZZ    -482.7701
 -----------------------------------------------------------------
 Total job time:  172.26s(wall), 170.25s(cpu) 
 Sun Jul 10 10:03:52 2022

        *************************************************************
        *                                                           *
        *  Thank you very much for using Q-Chem.  Have a nice day.  *
        *                                                           *
        *************************************************************


remove work dirs ./qchem931591.0 -- ./qchem931591.-1
rm -rf ./qchem931591
