You are running Q-Chem version: 5.4.0

#
# job setting
#
local host:  exp-5-33
current dir: /expanse/lustre/scratch/theleonzhang/temp_project/Hydrogenated_Impropers_Test
input file:  Methylthiophene_Phi_30_Theta_290_Methylthiophene_Hydrogenated_Improper_Alternate.qcin
output file: 
nprocs     : 0
nthreads   : 1
#
# qchem installation setting
#
QC:          /cm/shared/apps/spack/cpu/opt/spack/linux-centos8-zen2/gcc-10.2.0/qchem-5.4-akfmr7b3t57bfs6qan3padb2wnb2i7cl
QCAUX:       /cm/shared/apps/spack/cpu/opt/spack/linux-centos8-zen2/gcc-10.2.0/qchem-5.4-akfmr7b3t57bfs6qan3padb2wnb2i7cl/qcaux
QCPROG:      /cm/shared/apps/spack/cpu/opt/spack/linux-centos8-zen2/gcc-10.2.0/qchem-5.4-akfmr7b3t57bfs6qan3padb2wnb2i7cl/exe/qcprog.exe_s
QCPROG_S:    /cm/shared/apps/spack/cpu/opt/spack/linux-centos8-zen2/gcc-10.2.0/qchem-5.4-akfmr7b3t57bfs6qan3padb2wnb2i7cl/exe/qcprog.exe_s
PARALLEL:    -DSERIAL
QCMPI:       mpich
#
# qchem directory setting
#
qcrun:       qchem2191854
QCSCRATCH:   .
QCLOCALSCR:  
QCTMPDIR:    .
QCFILEPREF:  ./qchem2191854
QCSAVEDIR:   
workdirs:    ./qchem2191854
workdir0:    ./qchem2191854
partmpdirs =  
#
# parallel setting
#
QCRSH:           ssh
QCMPI:           mpich
QCMPIRUN:        /cm/shared/apps/spack/cpu/opt/spack/linux-centos8-zen2/gcc-10.2.0/qchem-5.4-akfmr7b3t57bfs6qan3padb2wnb2i7cl/bin/mpi/mpirun_qchem
QCMACHINEFILE:   ./qchem2191854/hostfile

#
# env setting
#
exported envs:   QC QCAUX QCSCRATCH QCRUNNAME QCFILEPREF QCPROG QCPROG_S GUIFILE

Running Job 1 of 1 Methylthiophene_Phi_30_Theta_290_Methylthiophene_Hydrogenated_Improper_Alternate.qcin
qchem Methylthiophene_Phi_30_Theta_290_Methylthiophene_Hydrogenated_Improper_Alternate.qcin_2191854.0 ./qchem2191854/ 0
/cm/shared/apps/spack/cpu/opt/spack/linux-centos8-zen2/gcc-10.2.0/qchem-5.4-akfmr7b3t57bfs6qan3padb2wnb2i7cl/exe/qcprog.exe_s Methylthiophene_Phi_30_Theta_290_Methylthiophene_Hydrogenated_Improper_Alternate.qcin_2191854.0 ./qchem2191854/
                  Welcome to Q-Chem
     A Quantum Leap Into The Future Of Chemistry


 Q-Chem 5.4, Q-Chem, Inc., Pleasanton, CA (2021)

 License issued to: University of California, San Diego (site)

 E. Epifanovsky,  A. T. B. Gilbert,  Xintian Feng,  Joonho Lee,  Yuezhi Mao,  
 N. Mardirossian,  P. Pokhilko,  A. White,  M. Wormit,  M. P. Coons,  
 A. L. Dempwolff,  Zhengting Gan,  D. Hait,  P. R. Horn,  L. D. Jacobson,  
 I. Kaliman,  J. Kussmann,  A. W. Lange,  Ka Un Lao,  D. S. Levine,  Jie Liu,  
 S. C. McKenzie,  A. F. Morrison,  K. Nanda,  F. Plasser,  D. R. Rehn,  
 M. L. Vidal,  Zhi-Qiang You,  Ying Zhu,  B. Alam,  B. Albrecht,  
 A. Aldossary,  E. Alguire,  J. H. Andersen,  D. Barton,  K. Begam,  A. Behn,  
 Y. A. Bernard,  E. J. Berquist,  H. Burton,  A. Carreras,  K. Carter-Fenk,  
 R. Chakraborty,  A. D. Chien,  K. D. Closser,  V. Cofer-Shabica,  
 S. Dasgupta,  Jia Deng,  M. de Wergifosse,  M. Diedenhofen,  Hainam Do,  
 S. Ehlert,  Po-Tung Fang,  S. Fatehi,  Qingguo Feng,  J. Gayvert,  
 Qinghui Ge,  G. Gidofalvi,  M. Goldey,  J. Gomes,  C. Gonzalez-Espinoza,  
 S. Gulania,  A. Gunina,  M. W. D. Hanson-Heine,  P. H. P. Harbach,  
 A. W. Hauser,  M. F. Herbst,  M. Hernandez Vera,  M. Hodecker,  
 Z. C. Holden,  S. Houck,  Xunkun Huang,  Kerwin Hui,  B. C. Huynh,  
 M. Ivanov,  Hyunjun Ji,  Hanjie Jiang,  B. Kaduk,  S. Kaehler,  
 K. Khistyaev,  Jaehoon Kim,  P. Klunzinger,  Z. Koczor-Benda,  
 Joong Hoon Koh,  D. Kosenkov,  L. Koulias,  T. Kowalczyk,  C. M. Krauter,  
 K. Kue,  A. Kunitsa,  T. Kus,  A. Landau,  K. V. Lawler,  D. Lefrancois,  
 S. Lehtola,  Rain Li,  Yi-Pei Li,  Jiashu Liang,  M. Liebenthal,  
 Hung-Hsuan Lin,  You-Sheng Lin,  Fenglai Liu,  Kuan-Yu Liu,  
 M. Loipersberger,  A. Luenser,  A. Manjanath,  P. Manohar,  E. Mansoor,  
 S. F. Manzer,  Shan-Ping Mao,  A. V. Marenich,  T. Markovich,  S. Mason,  
 S. A. Maurer,  P. F. McLaughlin,  M. F. S. J. Menger,  J.-M. Mewes,  
 S. A. Mewes,  P. Morgante,  J. W. Mullinax,  T. S. Nguyen-Beck,  
 K. J. Oosterbaan,  G. Paran,  Alexander C. Paul,  Suranjan K. Paul,  
 F. Pavosevic,  Zheng Pei,  S. Prager,  E. I. Proynov,  E. Ramos,  B. Rana,  
 A. E. Rask,  A. Rettig,  R. M. Richard,  F. Rob,  E. Rossomme,  T. Scheele,  
 M. Scheurer,  M. Schneider,  N. Sergueev,  S. M. Sharada,  W. Skomorowski,  
 D. W. Small,  C. J. Stein,  Yu-Chuan Su,  E. J. Sundstrom,  Zhen Tao,  
 J. Thirman,  T. Tsuchimochi,  N. M. Tubman,  S. P. Veccham,  O. Vydrov,  
 J. Wenzel,  J. Witte,  A. Yamada,  Kun Yao,  S. Yeganeh,  S. R. Yost,  
 A. Zech,  Igor Ying Zhang,  Xing Zhang,  Yu Zhang,  D. Zuev,  
 A. Aspuru-Guzik,  A. T. Bell,  N. A. Besley,  K. B. Bravaya,  B. R. Brooks,  
 D. Casanova,  Jeng-Da Chai,  S. Coriani,  C. J. Cramer,  
 A. E. DePrince, III,  R. A. DiStasio Jr.,  A. Dreuw,  B. D. Dunietz,  
 T. R. Furlani,  W. A. Goddard III,  S. Grimme,  S. Hammes-Schiffer,  
 T. Head-Gordon,  W. J. Hehre,  Chao-Ping Hsu,  T.-C. Jagau,  Yousung Jung,  
 A. Klamt,  Jing Kong,  D. S. Lambrecht,  WanZhen Liang,  N. J. Mayhall,  
 C. W. McCurdy,  J. B. Neaton,  C. Ochsenfeld,  J. A. Parkhill,  R. Peverati,  
 V. A. Rassolov,  Yihan Shao,  L. V. Slipchenko,  T. Stauch,  R. P. Steele,  
 J. E. Subotnik,  A. J. W. Thom,  A. Tkatchenko,  D. G. Truhlar,  
 T. Van Voorhis,  T. A. Wesolowski,  K. B. Whaley,  H. L. Woodcock III,  
 P. M. Zimmerman,  S. Faraji,  P. M. W. Gill,  M. Head-Gordon,  
 J. M. Herbert,  A. I. Krylov

 Contributors to earlier versions of Q-Chem not listed above: 
 R. D. Adamson,  B. Austin,  R. Baer,  J. Baker,  G. J. O. Beran,  
 K. Brandhorst,  S. T. Brown,  E. F. C. Byrd,  A. K. Chakraborty,  
 G. K. L. Chan,  Chun-Min Chang,  Yunqing Chen,  C.-L. Cheng,  
 Siu Hung Chien,  D. M. Chipman,  D. L. Crittenden,  H. Dachsel,  
 R. J. Doerksen,  A. D. Dutoi,  R. G. Edgar,  J. Fosso-Tande,  
 L. Fusti-Molnar,  D. Ghosh,  A. Ghysels,  A. Golubeva-Zadorozhnaya,  
 J. Gonthier,  M. S. Gordon,  S. R. Gwaltney,  G. Hawkins,  J. E. Herr,  
 A. Heyden,  S. Hirata,  E. G. Hohenstein,  G. Kedziora,  F. J. Keil,  
 C. Kelley,  Jihan Kim,  R. A. King,  R. Z. Khaliullin,  P. P. Korambath,  
 W. Kurlancheek,  A. Laurent,  A. M. Lee,  M. S. Lee,  S. V. Levchenko,  
 Ching Yeh Lin,  D. Liotard,  E. Livshits,  R. C. Lochan,  I. Lotan,  
 L. A. Martinez-Martinez,  P. E. Maslen,  N. Nair,  D. P. O'Neill,  
 D. Neuhauser,  E. Neuscamman,  C. M. Oana,  R. Olivares-Amaya,  R. Olson,  
 T. M. Perrine,  B. Peters,  P. A. Pieniazek,  A. Prociuk,  Y. M. Rhee,  
 J. Ritchie,  M. A. Rohrdanz,  E. Rosta,  N. J. Russ,  H. F. Schaefer III,  
 M. W. Schmidt,  N. E. Schultz,  S. Sharma,  N. Shenvi,  C. D. Sherrill,  
 A. C. Simmonett,  A. Sodt,  T. Stein,  D. Stuck,  K. S. Thanthiriwatte,  
 V. Vanovschi,  L. Vogt,  Tao Wang,  A. Warshel,  M. A. Watson,  
 C. F. Williams,  Q. Wu,  X. Xu,  Jun Yang,  W. Zhang,  Yan Zhao

 Please cite Q-Chem as follows:
 Y. Shao et al., Mol. Phys. 113, 184-215 (2015)
 DOI: 10.1080/00268976.2014.952696

 Q-Chem 5.4.0 for Intel X86 EM64T Linux

 Parts of Q-Chem use Armadillo 9.800.1 (Horizon Scraper).
 http://arma.sourceforge.net/

 Q-Chem begins on Sun Jul 10 10:41:13 2022  

 Host: 
0

     Scratch files written to ./qchem2191854//
 May1621 |scratch|qcdevops|jenkins|workspace|build_RNUM    
 Processing $rem in /cm/shared/apps/spack/cpu/opt/spack/linux-centos8-zen2/gcc-10.2.0/qchem-5.4-akfmr7b3t57bfs6qan3padb2wnb2i7cl/config/preferences:
 Processing $rem in /home/theleonzhang/.qchemrc:
 Symmetry turned off for PCM/SM12/SMD calculation
 Core orbitals will be frozen

 Checking the input file for inconsistencies... 	...done.

--------------------------------------------------------------
User input:
--------------------------------------------------------------
$molecule
0 1
C	-0.341377	-0.485419	0.019394
C	0.090423	0.262481	1.118794
C	0.782423	1.460981	0.796094
H	-0.093977	-0.056919	2.155494
C	0.892723	1.652081	-0.593106
S	0.129823	0.330681	-1.467406
C	1.326323	2.402981	1.833994
H	1.113523	2.034381	2.856094
H	0.880623	3.415781	1.745594
H	2.426323	2.523381	1.745594
C	-0.341377	-1.926119	0.019394
H	0.028123	-1.926319	-0.995406
H	-1.111177	-2.629919	-0.260806
H	0.548623	-2.445019	0.343294
H	1.367423	2.474081	-1.142206
$end

$rem
JOBTYPE		SP
EXCHANGE	HF
CORRELATION	pRIMP2
BASIS		cc-pvtz
METHOD		rimp2
AUX_BASIS	rimp2-cc-pvtz
SOLVENT_METHOD	PCM
PURECART	11111
SYMMETRY	false
MEM_TOTAL	110000
SCF_CONVERGENCE = 6
THRESH=10
$end



$solvent
dielectric 4.90
$end
--------------------------------------------------------------
 ----------------------------------------------------------------
             Standard Nuclear Orientation (Angstroms)
    I     Atom           X                Y                Z
 ----------------------------------------------------------------
    1      C      -0.3413770000    -0.4854190000     0.0193940000
    2      C       0.0904230000     0.2624810000     1.1187940000
    3      C       0.7824230000     1.4609810000     0.7960940000
    4      H      -0.0939770000    -0.0569190000     2.1554940000
    5      C       0.8927230000     1.6520810000    -0.5931060000
    6      S       0.1298230000     0.3306810000    -1.4674060000
    7      C       1.3263230000     2.4029810000     1.8339940000
    8      H       1.1135230000     2.0343810000     2.8560940000
    9      H       0.8806230000     3.4157810000     1.7455940000
   10      H       2.4263230000     2.5233810000     1.7455940000
   11      C      -0.3413770000    -1.9261190000     0.0193940000
   12      H       0.0281230000    -1.9263190000    -0.9954060000
   13      H      -1.1111770000    -2.6299190000    -0.2608060000
   14      H       0.5486230000    -2.4450190000     0.3432940000
   15      H       1.3674230000     2.4740810000    -1.1422060000
 ----------------------------------------------------------------
 Nuclear Repulsion Energy =         346.55956775 hartrees
 There are       30 alpha and       30 beta electrons

 Q-Chem warning in module forms1/BasisType.C, line 2236:

 You are not using the predefined 5D/6D in this basis set.

 Requested basis set is cc-pVTZ
 There are 120 shells and 326 basis functions

 Total QAlloc Memory Limit 110000 MB
 Mega-Array Size       188 MB
 MEM_STATIC part       192 MB
 Discretize the solute cavity surface with Lebedev spheres
	Using 110 Lebedev grid points for each H atom
	Using 194 Lebedev grid points for other atoms
	Atomic van der Waals radii will be scaled by 1.20
 Remove points where switching function is < 1.0e-08
 Keep 1047 surface tesserae and discard 1191 interior tesserae
 Molecular Surface Area = 157.605 Angst**2

                       Distance Matrix (Angstroms)
             C (  1)   C (  2)   C (  3)   H (  4)   C (  5)   S (  6)
   C (  2)  1.398029
   C (  3)  2.377953  1.421056
   H (  4)  2.192656  1.100348  2.218122
   C (  5)  2.543043  2.346332  1.406614  3.383646
   S (  6)  1.760291  2.587399  2.612833  3.650442  1.758555
   C (  7)  3.796953  2.573072  1.503472  2.858622  2.577339  4.077411
   H (  8)  4.063618  2.684134  2.163796  2.514445  3.477339  4.750043
   H (  9)  4.437613  3.310679  2.175416  3.630084  2.929215  4.517180
   H ( 10)  4.437658  3.310736  2.175466  3.630135  2.929268  4.517213
   C ( 11)  1.440700  2.486986  3.652210  2.849217  3.834276  2.743310
   H ( 12)  1.800706  3.043775  3.905412  3.665752  3.703286  2.308068
   H ( 13)  2.295645  3.422443  4.630143  3.673354  4.739363  3.429448
   H ( 14)  2.176475  2.853402  3.939102  3.065946  4.216809  3.340440
   H ( 15)  3.609425  3.410869  2.263980  4.406413  1.096602  2.496312
             C (  7)   H (  8)   H (  9)   H ( 10)   C ( 11)   H ( 12)
   H (  8)  1.107176
   H (  9)  1.110057  1.787657
   H ( 10)  1.110095  1.787673  1.784815
   C ( 11)  4.981476  5.084207  5.745341  5.517063
   H ( 12)  5.332323  5.630212  6.064476  5.750154  1.079977
   H ( 13)  5.971572  6.034903  6.674084  6.564758  1.080018  1.527316
   H ( 14)  5.131287  5.167040  6.035366  5.493378  1.079939  1.527117
   H ( 15)  2.977333  4.030410  3.076225  3.076213  4.861180  4.602042
             H ( 13)   H ( 14)
   H ( 14)  1.775968
   H ( 15)  5.742050  5.203334
 
 Requested basis set is rimp2-cc-pVTZ
 There are 250 shells and 848 basis functions
 A cutoff of  1.0D-10 yielded   6207 shell pairs
 There are     45483 function pairs (     58487 Cartesian)
 Smallest overlap matrix eigenvalue = 1.21E-04

 Scale SEOQF with 1.000000e-01/1.000000e-01/1.000000e-01

 Standard Electronic Orientation quadrupole field applied
 Nucleus-field energy     =     0.0000000012 hartrees
 Guess from superposition of atomic densities
 Warning:  Energy on first SCF cycle will be non-variational
 SAD guess density has 60.000000 electrons

 -----------------------------------------------------------------------
  General SCF calculation program by
  Eric Jon Sundstrom, Paul Horn, Yuezhi Mao, Dmitri Zuev, Alec White,
  David Stuck, Shaama M.S., Shane Yost, Joonho Lee, David Small,
  Daniel Levine, Susi Lehtola, Hugh Burton, Evgeny Epifanovsky,
  Bang C. Huynh
 -----------------------------------------------------------------------
 Hartree-Fock
 A restricted SCF calculation will be
 performed using DIIS
 SCF converges when DIIS error is below 1.0e-06
 ---------------------------------------
  Cycle       Energy         DIIS error
 ---------------------------------------
    1    -632.1405677781      2.93e-02  
    2    -629.3220565910      1.93e-03  
    3    -629.3925687361      6.65e-04  
    4    -629.4000123725      3.31e-04  
    5    -629.4020005657      6.44e-05  
    6    -629.4021406622      2.63e-05  
    7    -629.4021776193      1.20e-05  
    8    -629.4021881405      4.81e-06  
    9    -629.4021896580      1.93e-06  
   10    -629.4021898529      5.54e-07  Convergence criterion met
 ---------------------------------------
 SCF time:   CPU 145.45s  wall 146.00s 

************** Final PCM Free Energy Summary **************
 G_electrostatic  =      -0.00492068 hartree =      -3.08777440 kcal/mol
 G_cavitation     =       0.00000000 hartree =       0.00000000 kcal/mol
 G_dispersion     =       0.00000000 hartree =       0.00000000 kcal/mol
 G_repulsion      =       0.00000000 hartree =       0.00000000 kcal/mol
 --------------------------------------------------
 Non-electrostatic Free Energy =       0.00000000 hartree =       0.00000000 kcal/mol
 Total                         =      -0.00492068 hartree =      -3.08777440 kcal/mol
 --------------------------------------------------
 SCF Energy (H0 + V/2)                       =    -629.40218985 
 Solute Internal Energy (H0)                 =    -629.39726917 
 Total Free Energy (H0 + V/2 + non-elec)     =    -629.40218985 hartree
                                             = -394955.83520084 kcal/mol
***********************************************************

 SCF   energy in the final basis set =     -629.4021898529
 Total energy in the final basis set =     -629.4021898529


 --------------------------------------------------------------
  Generalized many-body perturbation theory program
  by Joonho Lee, Fazle Rob, Xintian Feng, Evgeny Epifanovsky

 No regularization used 
 (reg. param. = 0.0000e+00)
  (P|Q)^-1/2 Time:  CPU 0.51 s  wall 0.51 s

 In RI-MP2 calculation: 
 # of frozen core orbitals: 11

 Components of the RIMP2 correlation energy:
        aaaa    correlation energy =        -0.1461639593 a.u.
        abab    correlation energy =        -0.8891388400 a.u.
        bbbb    correlation energy =        -0.1461639593 a.u.
        non-Brillouin singles      =        -0.0000000000 a.u.
        total same-spin energy     =        -0.2923279187 a.u.
        total opposite-spin energy =        -0.8891388400 a.u.

 Total  RIMP2   correlation energy =        -1.1814667586 a.u.
        RIMP2         total energy =      -630.5836566116 a.u.

 RI-MP2 Energy Time:  CPU 12.56 s  wall 12.58 s
 
 --------------------------------------------------------------
 
                    Orbital Energies (a.u.)
 --------------------------------------------------------------
 
 Alpha MOs
 -- Occupied --
-91.9770 -11.2697 -11.2621 -11.2471 -11.2341 -11.2272 -11.2132  -8.9775
 -6.6584  -6.6578  -6.6572  -1.1640  -1.0556  -0.9945  -0.9451  -0.8804
 -0.7493  -0.7204  -0.6460  -0.5908  -0.5771  -0.5655  -0.5520  -0.5479
 -0.5110  -0.4821  -0.4638  -0.4427  -0.3373  -0.3013
 -- Virtual --
  0.0901   0.1443   0.1539   0.1737   0.1871   0.1894   0.1983   0.2299
  0.2396   0.2441   0.2468   0.2691   0.2894   0.3161   0.3480   0.3501
  0.3736   0.4030   0.4081   0.4191   0.4435   0.4594   0.4695   0.4737
  0.4853   0.5016   0.5081   0.5311   0.5392   0.5588   0.5685   0.5827
  0.5980   0.6039   0.6109   0.6166   0.6310   0.6352   0.6412   0.6490
  0.6590   0.6610   0.6819   0.7053   0.7315   0.7422   0.7744   0.7787
  0.7981   0.8144   0.8375   0.8607   0.8653   0.8908   0.8950   0.9244
  0.9521   0.9790   1.0007   1.0123   1.0292   1.0515   1.0618   1.0768
  1.0862   1.1004   1.1290   1.1364   1.1542   1.1721   1.1964   1.2165
  1.2234   1.2366   1.2475   1.2681   1.2730   1.2917   1.3126   1.3313
  1.3561   1.3722   1.4044   1.4089   1.4229   1.4387   1.4472   1.4687
  1.4883   1.5025   1.5125   1.5232   1.5524   1.5574   1.5738   1.5894
  1.6092   1.6242   1.6404   1.6652   1.6876   1.7005   1.7182   1.7344
  1.7579   1.7747   1.7969   1.8346   1.8872   1.9097   1.9499   1.9568
  1.9896   2.0342   2.1070   2.1214   2.1785   2.1865   2.2047   2.2115
  2.2600   2.2853   2.3629   2.4236   2.4563   2.4892   2.5358   2.5568
  2.5726   2.5846   2.6502   2.6620   2.6722   2.6929   2.7054   2.7306
  2.7407   2.7538   2.7697   2.7854   2.8207   2.8397   2.8707   2.8860
  2.9050   2.9104   2.9555   2.9749   3.0111   3.0380   3.0513   3.0619
  3.1109   3.1149   3.1263   3.1399   3.1516   3.1669   3.1839   3.2033
  3.2156   3.2541   3.2641   3.2682   3.2889   3.2981   3.3198   3.3258
  3.3548   3.3653   3.3730   3.3785   3.3966   3.4162   3.4281   3.4341
  3.4406   3.4500   3.4776   3.4983   3.5153   3.5418   3.5523   3.5780
  3.5839   3.5968   3.6181   3.6234   3.6467   3.6600   3.6669   3.6760
  3.7078   3.7265   3.7324   3.7531   3.7717   3.7854   3.7930   3.8040
  3.8140   3.8435   3.8664   3.8735   3.8881   3.9188   3.9304   3.9554
  3.9746   3.9877   3.9936   4.0290   4.0395   4.0466   4.0965   4.1062
  4.1322   4.1540   4.1690   4.1879   4.2067   4.2332   4.2376   4.2483
  4.2667   4.2859   4.3215   4.3380   4.3471   4.3642   4.3925   4.3974
  4.4054   4.4222   4.4330   4.4702   4.4834   4.5220   4.5381   4.5941
  4.6050   4.6153   4.6448   4.6600   4.7142   4.7348   4.7418   4.7729
  4.8048   4.8128   4.8411   4.8934   4.9342   4.9534   5.0652   5.0946
  5.1138   5.1233   5.1874   5.1991   5.2298   5.2588   5.2801   5.3119
  5.3684   5.4049   5.4140   5.4414   5.4794   5.4933   5.5480   5.5619
  5.5973   5.6212   5.6253   5.6731   5.7026   5.8033   5.8343   5.8660
  5.8921   5.9646   6.0446   6.1189   6.2273   6.2370   6.2839   6.3496
  6.4304   6.4808   9.2262  11.4513  12.8620  13.6891  14.1866  14.3899
 --------------------------------------------------------------
 
          Ground-State Mulliken Net Atomic Charges

     Atom                 Charge (a.u.)
  ----------------------------------------
      1 C                     0.023814
      2 C                    -0.262140
      3 C                     0.046742
      4 H                     0.178690
      5 C                    -0.248218
      6 S                    -0.004008
      7 C                    -0.270999
      8 H                     0.101849
      9 H                     0.107291
     10 H                     0.106045
     11 C                    -0.371479
     12 H                     0.123443
     13 H                     0.139129
     14 H                     0.134754
     15 H                     0.195088
  ----------------------------------------
  Sum of atomic charges =     0.000000

 -----------------------------------------------------------------
                    Cartesian Multipole Moments
 -----------------------------------------------------------------
    Charge (ESU x 10^10)
                -0.0000
    Dipole Moment (Debye)
         X       1.1293      Y       0.0591      Z       0.9536
       Tot       1.4792
    Quadrupole Moments (Debye-Ang)
        XX     -51.9343     XY       3.4513     YY     -44.8380
        XZ       0.4067     YZ       1.4115     ZZ     -48.5811
    Octopole Moments (Debye-Ang^2)
       XXX     -52.5303    XXY     -22.3244    XYY      -9.6738
       YYY     -68.7727    XXZ      -2.6369    XYZ      -2.7289
       YYZ      -6.9144    XZZ     -15.2793    YZZ     -19.6526
       ZZZ       2.4672
    Hexadecapole Moments (Debye-Ang^3)
      XXXX    -219.7347   XXXY    -135.6190   XXYY    -145.1062
      XYYY    -122.9173   YYYY    -682.1165   XXXZ     -47.7189
      XXYZ     -29.8782   XYYZ     -17.6568   YYYZ     -84.9994
      XXZZ    -120.4516   XYZZ     -38.4042   YYZZ    -195.1557
      XZZZ     -52.7392   YZZZ     -90.2148   ZZZZ    -480.6650
 -----------------------------------------------------------------
 Total job time:  159.16s(wall), 158.39s(cpu) 
 Sun Jul 10 10:43:52 2022

        *************************************************************
        *                                                           *
        *  Thank you very much for using Q-Chem.  Have a nice day.  *
        *                                                           *
        *************************************************************


remove work dirs ./qchem2191854.0 -- ./qchem2191854.-1
rm -rf ./qchem2191854
You are running Q-Chem version: 5.4.0

#
# job setting
#
local host:  exp-2-07
current dir: /expanse/lustre/scratch/theleonzhang/temp_project/Hydrogenated_Impropers_Test
input file:  Methylthiophene_Phi_30_Theta_290_Methylthiophene_Hydrogenated_Improper_Alternate.qcin
output file: 
nprocs     : 0
nthreads   : 1
#
# qchem installation setting
#
QC:          /cm/shared/apps/spack/cpu/opt/spack/linux-centos8-zen2/gcc-10.2.0/qchem-5.4-akfmr7b3t57bfs6qan3padb2wnb2i7cl
QCAUX:       /cm/shared/apps/spack/cpu/opt/spack/linux-centos8-zen2/gcc-10.2.0/qchem-5.4-akfmr7b3t57bfs6qan3padb2wnb2i7cl/qcaux
QCPROG:      /cm/shared/apps/spack/cpu/opt/spack/linux-centos8-zen2/gcc-10.2.0/qchem-5.4-akfmr7b3t57bfs6qan3padb2wnb2i7cl/exe/qcprog.exe_s
QCPROG_S:    /cm/shared/apps/spack/cpu/opt/spack/linux-centos8-zen2/gcc-10.2.0/qchem-5.4-akfmr7b3t57bfs6qan3padb2wnb2i7cl/exe/qcprog.exe_s
PARALLEL:    -DSERIAL
QCMPI:       mpich
#
# qchem directory setting
#
qcrun:       qchem1031976
QCSCRATCH:   .
QCLOCALSCR:  
QCTMPDIR:    .
QCFILEPREF:  ./qchem1031976
QCSAVEDIR:   
workdirs:    ./qchem1031976
workdir0:    ./qchem1031976
partmpdirs =  
#
# parallel setting
#
QCRSH:           ssh
QCMPI:           mpich
QCMPIRUN:        /cm/shared/apps/spack/cpu/opt/spack/linux-centos8-zen2/gcc-10.2.0/qchem-5.4-akfmr7b3t57bfs6qan3padb2wnb2i7cl/bin/mpi/mpirun_qchem
QCMACHINEFILE:   ./qchem1031976/hostfile

#
# env setting
#
exported envs:   QC QCAUX QCSCRATCH QCRUNNAME QCFILEPREF QCPROG QCPROG_S GUIFILE

Running Job 1 of 1 Methylthiophene_Phi_30_Theta_290_Methylthiophene_Hydrogenated_Improper_Alternate.qcin
qchem Methylthiophene_Phi_30_Theta_290_Methylthiophene_Hydrogenated_Improper_Alternate.qcin_1031976.0 ./qchem1031976/ 0
/cm/shared/apps/spack/cpu/opt/spack/linux-centos8-zen2/gcc-10.2.0/qchem-5.4-akfmr7b3t57bfs6qan3padb2wnb2i7cl/exe/qcprog.exe_s Methylthiophene_Phi_30_Theta_290_Methylthiophene_Hydrogenated_Improper_Alternate.qcin_1031976.0 ./qchem1031976/
                  Welcome to Q-Chem
     A Quantum Leap Into The Future Of Chemistry


 Q-Chem 5.4, Q-Chem, Inc., Pleasanton, CA (2021)

 License issued to: University of California, San Diego (site)

 E. Epifanovsky,  A. T. B. Gilbert,  Xintian Feng,  Joonho Lee,  Yuezhi Mao,  
 N. Mardirossian,  P. Pokhilko,  A. White,  M. Wormit,  M. P. Coons,  
 A. L. Dempwolff,  Zhengting Gan,  D. Hait,  P. R. Horn,  L. D. Jacobson,  
 I. Kaliman,  J. Kussmann,  A. W. Lange,  Ka Un Lao,  D. S. Levine,  Jie Liu,  
 S. C. McKenzie,  A. F. Morrison,  K. Nanda,  F. Plasser,  D. R. Rehn,  
 M. L. Vidal,  Zhi-Qiang You,  Ying Zhu,  B. Alam,  B. Albrecht,  
 A. Aldossary,  E. Alguire,  J. H. Andersen,  D. Barton,  K. Begam,  A. Behn,  
 Y. A. Bernard,  E. J. Berquist,  H. Burton,  A. Carreras,  K. Carter-Fenk,  
 R. Chakraborty,  A. D. Chien,  K. D. Closser,  V. Cofer-Shabica,  
 S. Dasgupta,  Jia Deng,  M. de Wergifosse,  M. Diedenhofen,  Hainam Do,  
 S. Ehlert,  Po-Tung Fang,  S. Fatehi,  Qingguo Feng,  J. Gayvert,  
 Qinghui Ge,  G. Gidofalvi,  M. Goldey,  J. Gomes,  C. Gonzalez-Espinoza,  
 S. Gulania,  A. Gunina,  M. W. D. Hanson-Heine,  P. H. P. Harbach,  
 A. W. Hauser,  M. F. Herbst,  M. Hernandez Vera,  M. Hodecker,  
 Z. C. Holden,  S. Houck,  Xunkun Huang,  Kerwin Hui,  B. C. Huynh,  
 M. Ivanov,  Hyunjun Ji,  Hanjie Jiang,  B. Kaduk,  S. Kaehler,  
 K. Khistyaev,  Jaehoon Kim,  P. Klunzinger,  Z. Koczor-Benda,  
 Joong Hoon Koh,  D. Kosenkov,  L. Koulias,  T. Kowalczyk,  C. M. Krauter,  
 K. Kue,  A. Kunitsa,  T. Kus,  A. Landau,  K. V. Lawler,  D. Lefrancois,  
 S. Lehtola,  Rain Li,  Yi-Pei Li,  Jiashu Liang,  M. Liebenthal,  
 Hung-Hsuan Lin,  You-Sheng Lin,  Fenglai Liu,  Kuan-Yu Liu,  
 M. Loipersberger,  A. Luenser,  A. Manjanath,  P. Manohar,  E. Mansoor,  
 S. F. Manzer,  Shan-Ping Mao,  A. V. Marenich,  T. Markovich,  S. Mason,  
 S. A. Maurer,  P. F. McLaughlin,  M. F. S. J. Menger,  J.-M. Mewes,  
 S. A. Mewes,  P. Morgante,  J. W. Mullinax,  T. S. Nguyen-Beck,  
 K. J. Oosterbaan,  G. Paran,  Alexander C. Paul,  Suranjan K. Paul,  
 F. Pavosevic,  Zheng Pei,  S. Prager,  E. I. Proynov,  E. Ramos,  B. Rana,  
 A. E. Rask,  A. Rettig,  R. M. Richard,  F. Rob,  E. Rossomme,  T. Scheele,  
 M. Scheurer,  M. Schneider,  N. Sergueev,  S. M. Sharada,  W. Skomorowski,  
 D. W. Small,  C. J. Stein,  Yu-Chuan Su,  E. J. Sundstrom,  Zhen Tao,  
 J. Thirman,  T. Tsuchimochi,  N. M. Tubman,  S. P. Veccham,  O. Vydrov,  
 J. Wenzel,  J. Witte,  A. Yamada,  Kun Yao,  S. Yeganeh,  S. R. Yost,  
 A. Zech,  Igor Ying Zhang,  Xing Zhang,  Yu Zhang,  D. Zuev,  
 A. Aspuru-Guzik,  A. T. Bell,  N. A. Besley,  K. B. Bravaya,  B. R. Brooks,  
 D. Casanova,  Jeng-Da Chai,  S. Coriani,  C. J. Cramer,  
 A. E. DePrince, III,  R. A. DiStasio Jr.,  A. Dreuw,  B. D. Dunietz,  
 T. R. Furlani,  W. A. Goddard III,  S. Grimme,  S. Hammes-Schiffer,  
 T. Head-Gordon,  W. J. Hehre,  Chao-Ping Hsu,  T.-C. Jagau,  Yousung Jung,  
 A. Klamt,  Jing Kong,  D. S. Lambrecht,  WanZhen Liang,  N. J. Mayhall,  
 C. W. McCurdy,  J. B. Neaton,  C. Ochsenfeld,  J. A. Parkhill,  R. Peverati,  
 V. A. Rassolov,  Yihan Shao,  L. V. Slipchenko,  T. Stauch,  R. P. Steele,  
 J. E. Subotnik,  A. J. W. Thom,  A. Tkatchenko,  D. G. Truhlar,  
 T. Van Voorhis,  T. A. Wesolowski,  K. B. Whaley,  H. L. Woodcock III,  
 P. M. Zimmerman,  S. Faraji,  P. M. W. Gill,  M. Head-Gordon,  
 J. M. Herbert,  A. I. Krylov

 Contributors to earlier versions of Q-Chem not listed above: 
 R. D. Adamson,  B. Austin,  R. Baer,  J. Baker,  G. J. O. Beran,  
 K. Brandhorst,  S. T. Brown,  E. F. C. Byrd,  A. K. Chakraborty,  
 G. K. L. Chan,  Chun-Min Chang,  Yunqing Chen,  C.-L. Cheng,  
 Siu Hung Chien,  D. M. Chipman,  D. L. Crittenden,  H. Dachsel,  
 R. J. Doerksen,  A. D. Dutoi,  R. G. Edgar,  J. Fosso-Tande,  
 L. Fusti-Molnar,  D. Ghosh,  A. Ghysels,  A. Golubeva-Zadorozhnaya,  
 J. Gonthier,  M. S. Gordon,  S. R. Gwaltney,  G. Hawkins,  J. E. Herr,  
 A. Heyden,  S. Hirata,  E. G. Hohenstein,  G. Kedziora,  F. J. Keil,  
 C. Kelley,  Jihan Kim,  R. A. King,  R. Z. Khaliullin,  P. P. Korambath,  
 W. Kurlancheek,  A. Laurent,  A. M. Lee,  M. S. Lee,  S. V. Levchenko,  
 Ching Yeh Lin,  D. Liotard,  E. Livshits,  R. C. Lochan,  I. Lotan,  
 L. A. Martinez-Martinez,  P. E. Maslen,  N. Nair,  D. P. O'Neill,  
 D. Neuhauser,  E. Neuscamman,  C. M. Oana,  R. Olivares-Amaya,  R. Olson,  
 T. M. Perrine,  B. Peters,  P. A. Pieniazek,  A. Prociuk,  Y. M. Rhee,  
 J. Ritchie,  M. A. Rohrdanz,  E. Rosta,  N. J. Russ,  H. F. Schaefer III,  
 M. W. Schmidt,  N. E. Schultz,  S. Sharma,  N. Shenvi,  C. D. Sherrill,  
 A. C. Simmonett,  A. Sodt,  T. Stein,  D. Stuck,  K. S. Thanthiriwatte,  
 V. Vanovschi,  L. Vogt,  Tao Wang,  A. Warshel,  M. A. Watson,  
 C. F. Williams,  Q. Wu,  X. Xu,  Jun Yang,  W. Zhang,  Yan Zhao

 Please cite Q-Chem as follows:
 Y. Shao et al., Mol. Phys. 113, 184-215 (2015)
 DOI: 10.1080/00268976.2014.952696

 Q-Chem 5.4.0 for Intel X86 EM64T Linux

 Parts of Q-Chem use Armadillo 9.800.1 (Horizon Scraper).
 http://arma.sourceforge.net/

 Q-Chem begins on Sun Jul 10 11:22:32 2022  

 Host: 
0

     Scratch files written to ./qchem1031976//
 May1621 |scratch|qcdevops|jenkins|workspace|build_RNUM    
 Processing $rem in /cm/shared/apps/spack/cpu/opt/spack/linux-centos8-zen2/gcc-10.2.0/qchem-5.4-akfmr7b3t57bfs6qan3padb2wnb2i7cl/config/preferences:
 Processing $rem in /home/theleonzhang/.qchemrc:
 Symmetry turned off for PCM/SM12/SMD calculation
 Core orbitals will be frozen

 Checking the input file for inconsistencies... 	...done.

--------------------------------------------------------------
User input:
--------------------------------------------------------------
$molecule
0 1
C	-0.341377	-0.485419	0.019394
C	0.090423	0.262481	1.118794
C	0.782423	1.460981	0.796094
H	-0.093977	-0.056919	2.155494
C	0.892723	1.652081	-0.593106
S	0.129823	0.330681	-1.467406
C	1.326323	2.402981	1.833994
H	1.113523	2.034381	2.856094
H	0.880623	3.415781	1.745594
H	2.426323	2.523381	1.745594
C	-0.341377	-1.926119	0.019394
H	0.028123	-1.926319	-0.995406
H	-1.111177	-2.629919	-0.260806
H	0.548623	-2.445019	0.343294
H	1.367423	2.474081	-1.142206
$end

$rem
JOBTYPE		SP
EXCHANGE	HF
CORRELATION	pRIMP2
BASIS		cc-pvtz
METHOD		rimp2
AUX_BASIS	rimp2-cc-pvtz
SOLVENT_METHOD	PCM
PURECART	11111
SYMMETRY	false
MEM_TOTAL	110000
SCF_CONVERGENCE = 6
THRESH=10
$end



$solvent
dielectric 4.90
$end
--------------------------------------------------------------
 ----------------------------------------------------------------
             Standard Nuclear Orientation (Angstroms)
    I     Atom           X                Y                Z
 ----------------------------------------------------------------
    1      C      -0.3413770000    -0.4854190000     0.0193940000
    2      C       0.0904230000     0.2624810000     1.1187940000
    3      C       0.7824230000     1.4609810000     0.7960940000
    4      H      -0.0939770000    -0.0569190000     2.1554940000
    5      C       0.8927230000     1.6520810000    -0.5931060000
    6      S       0.1298230000     0.3306810000    -1.4674060000
    7      C       1.3263230000     2.4029810000     1.8339940000
    8      H       1.1135230000     2.0343810000     2.8560940000
    9      H       0.8806230000     3.4157810000     1.7455940000
   10      H       2.4263230000     2.5233810000     1.7455940000
   11      C      -0.3413770000    -1.9261190000     0.0193940000
   12      H       0.0281230000    -1.9263190000    -0.9954060000
   13      H      -1.1111770000    -2.6299190000    -0.2608060000
   14      H       0.5486230000    -2.4450190000     0.3432940000
   15      H       1.3674230000     2.4740810000    -1.1422060000
 ----------------------------------------------------------------
 Nuclear Repulsion Energy =         346.55956775 hartrees
 There are       30 alpha and       30 beta electrons

 Q-Chem warning in module forms1/BasisType.C, line 2236:

 You are not using the predefined 5D/6D in this basis set.

 Requested basis set is cc-pVTZ
 There are 120 shells and 326 basis functions

 Total QAlloc Memory Limit 110000 MB
 Mega-Array Size       188 MB
 MEM_STATIC part       192 MB
 Discretize the solute cavity surface with Lebedev spheres
	Using 110 Lebedev grid points for each H atom
	Using 194 Lebedev grid points for other atoms
	Atomic van der Waals radii will be scaled by 1.20
 Remove points where switching function is < 1.0e-08
 Keep 1047 surface tesserae and discard 1191 interior tesserae
 Molecular Surface Area = 157.605 Angst**2

                       Distance Matrix (Angstroms)
             C (  1)   C (  2)   C (  3)   H (  4)   C (  5)   S (  6)
   C (  2)  1.398029
   C (  3)  2.377953  1.421056
   H (  4)  2.192656  1.100348  2.218122
   C (  5)  2.543043  2.346332  1.406614  3.383646
   S (  6)  1.760291  2.587399  2.612833  3.650442  1.758555
   C (  7)  3.796953  2.573072  1.503472  2.858622  2.577339  4.077411
   H (  8)  4.063618  2.684134  2.163796  2.514445  3.477339  4.750043
   H (  9)  4.437613  3.310679  2.175416  3.630084  2.929215  4.517180
   H ( 10)  4.437658  3.310736  2.175466  3.630135  2.929268  4.517213
   C ( 11)  1.440700  2.486986  3.652210  2.849217  3.834276  2.743310
   H ( 12)  1.800706  3.043775  3.905412  3.665752  3.703286  2.308068
   H ( 13)  2.295645  3.422443  4.630143  3.673354  4.739363  3.429448
   H ( 14)  2.176475  2.853402  3.939102  3.065946  4.216809  3.340440
   H ( 15)  3.609425  3.410869  2.263980  4.406413  1.096602  2.496312
             C (  7)   H (  8)   H (  9)   H ( 10)   C ( 11)   H ( 12)
   H (  8)  1.107176
   H (  9)  1.110057  1.787657
   H ( 10)  1.110095  1.787673  1.784815
   C ( 11)  4.981476  5.084207  5.745341  5.517063
   H ( 12)  5.332323  5.630212  6.064476  5.750154  1.079977
   H ( 13)  5.971572  6.034903  6.674084  6.564758  1.080018  1.527316
   H ( 14)  5.131287  5.167040  6.035366  5.493378  1.079939  1.527117
   H ( 15)  2.977333  4.030410  3.076225  3.076213  4.861180  4.602042
             H ( 13)   H ( 14)
   H ( 14)  1.775968
   H ( 15)  5.742050  5.203334
 
 Requested basis set is rimp2-cc-pVTZ
 There are 250 shells and 848 basis functions
 A cutoff of  1.0D-10 yielded   6207 shell pairs
 There are     45483 function pairs (     58487 Cartesian)
 Smallest overlap matrix eigenvalue = 1.21E-04

 Scale SEOQF with 1.000000e-01/1.000000e-01/1.000000e-01

 Standard Electronic Orientation quadrupole field applied
 Nucleus-field energy     =     0.0000000012 hartrees
 Guess from superposition of atomic densities
 Warning:  Energy on first SCF cycle will be non-variational
 SAD guess density has 60.000000 electrons

 -----------------------------------------------------------------------
  General SCF calculation program by
  Eric Jon Sundstrom, Paul Horn, Yuezhi Mao, Dmitri Zuev, Alec White,
  David Stuck, Shaama M.S., Shane Yost, Joonho Lee, David Small,
  Daniel Levine, Susi Lehtola, Hugh Burton, Evgeny Epifanovsky,
  Bang C. Huynh
 -----------------------------------------------------------------------
 Hartree-Fock
 A restricted SCF calculation will be
 performed using DIIS
 SCF converges when DIIS error is below 1.0e-06
 ---------------------------------------
  Cycle       Energy         DIIS error
 ---------------------------------------
    1    -632.1405677781      2.93e-02  
    2    -629.3220565910      1.93e-03  
    3    -629.3925687361      6.65e-04  
    4    -629.4000123725      3.31e-04  
    5    -629.4020005657      6.44e-05  
    6    -629.4021406622      2.63e-05  
    7    -629.4021776193      1.20e-05  
    8    -629.4021881405      4.81e-06  
    9    -629.4021896580      1.93e-06  
   10    -629.4021898529      5.54e-07  Convergence criterion met
 ---------------------------------------
 SCF time:   CPU 145.51s  wall 146.00s 

************** Final PCM Free Energy Summary **************
 G_electrostatic  =      -0.00492068 hartree =      -3.08777440 kcal/mol
 G_cavitation     =       0.00000000 hartree =       0.00000000 kcal/mol
 G_dispersion     =       0.00000000 hartree =       0.00000000 kcal/mol
 G_repulsion      =       0.00000000 hartree =       0.00000000 kcal/mol
 --------------------------------------------------
 Non-electrostatic Free Energy =       0.00000000 hartree =       0.00000000 kcal/mol
 Total                         =      -0.00492068 hartree =      -3.08777440 kcal/mol
 --------------------------------------------------
 SCF Energy (H0 + V/2)                       =    -629.40218985 
 Solute Internal Energy (H0)                 =    -629.39726917 
 Total Free Energy (H0 + V/2 + non-elec)     =    -629.40218985 hartree
                                             = -394955.83520084 kcal/mol
***********************************************************

 SCF   energy in the final basis set =     -629.4021898529
 Total energy in the final basis set =     -629.4021898529


 --------------------------------------------------------------
  Generalized many-body perturbation theory program
  by Joonho Lee, Fazle Rob, Xintian Feng, Evgeny Epifanovsky

 No regularization used 
 (reg. param. = 0.0000e+00)
  (P|Q)^-1/2 Time:  CPU 0.48 s  wall 0.48 s

 In RI-MP2 calculation: 
 # of frozen core orbitals: 11

 Components of the RIMP2 correlation energy:
        aaaa    correlation energy =        -0.1461639593 a.u.
        abab    correlation energy =        -0.8891388400 a.u.
        bbbb    correlation energy =        -0.1461639593 a.u.
        non-Brillouin singles      =        -0.0000000000 a.u.
        total same-spin energy     =        -0.2923279187 a.u.
        total opposite-spin energy =        -0.8891388400 a.u.

 Total  RIMP2   correlation energy =        -1.1814667586 a.u.
        RIMP2         total energy =      -630.5836566116 a.u.

 RI-MP2 Energy Time:  CPU 11.03 s  wall 11.07 s
 
 --------------------------------------------------------------
 
                    Orbital Energies (a.u.)
 --------------------------------------------------------------
 
 Alpha MOs
 -- Occupied --
-91.9770 -11.2697 -11.2621 -11.2471 -11.2341 -11.2272 -11.2132  -8.9775
 -6.6584  -6.6578  -6.6572  -1.1640  -1.0556  -0.9945  -0.9451  -0.8804
 -0.7493  -0.7204  -0.6460  -0.5908  -0.5771  -0.5655  -0.5520  -0.5479
 -0.5110  -0.4821  -0.4638  -0.4427  -0.3373  -0.3013
 -- Virtual --
  0.0901   0.1443   0.1539   0.1737   0.1871   0.1894   0.1983   0.2299
  0.2396   0.2441   0.2468   0.2691   0.2894   0.3161   0.3480   0.3501
  0.3736   0.4030   0.4081   0.4191   0.4435   0.4594   0.4695   0.4737
  0.4853   0.5016   0.5081   0.5311   0.5392   0.5588   0.5685   0.5827
  0.5980   0.6039   0.6109   0.6166   0.6310   0.6352   0.6412   0.6490
  0.6590   0.6610   0.6819   0.7053   0.7315   0.7422   0.7744   0.7787
  0.7981   0.8144   0.8375   0.8607   0.8653   0.8908   0.8950   0.9244
  0.9521   0.9790   1.0007   1.0123   1.0292   1.0515   1.0618   1.0768
  1.0862   1.1004   1.1290   1.1364   1.1542   1.1721   1.1964   1.2165
  1.2234   1.2366   1.2475   1.2681   1.2730   1.2917   1.3126   1.3313
  1.3561   1.3722   1.4044   1.4089   1.4229   1.4387   1.4472   1.4687
  1.4883   1.5025   1.5125   1.5232   1.5524   1.5574   1.5738   1.5894
  1.6092   1.6242   1.6404   1.6652   1.6876   1.7005   1.7182   1.7344
  1.7579   1.7747   1.7969   1.8346   1.8872   1.9097   1.9499   1.9568
  1.9896   2.0342   2.1070   2.1214   2.1785   2.1865   2.2047   2.2115
  2.2600   2.2853   2.3629   2.4236   2.4563   2.4892   2.5358   2.5568
  2.5726   2.5846   2.6502   2.6620   2.6722   2.6929   2.7054   2.7306
  2.7407   2.7538   2.7697   2.7854   2.8207   2.8397   2.8707   2.8860
  2.9050   2.9104   2.9555   2.9749   3.0111   3.0380   3.0513   3.0619
  3.1109   3.1149   3.1263   3.1399   3.1516   3.1669   3.1839   3.2033
  3.2156   3.2541   3.2641   3.2682   3.2889   3.2981   3.3198   3.3258
  3.3548   3.3653   3.3730   3.3785   3.3966   3.4162   3.4281   3.4341
  3.4406   3.4500   3.4776   3.4983   3.5153   3.5418   3.5523   3.5780
  3.5839   3.5968   3.6181   3.6234   3.6467   3.6600   3.6669   3.6760
  3.7078   3.7265   3.7324   3.7531   3.7717   3.7854   3.7930   3.8040
  3.8140   3.8435   3.8664   3.8735   3.8881   3.9188   3.9304   3.9554
  3.9746   3.9877   3.9936   4.0290   4.0395   4.0466   4.0965   4.1062
  4.1322   4.1540   4.1690   4.1879   4.2067   4.2332   4.2376   4.2483
  4.2667   4.2859   4.3215   4.3380   4.3471   4.3642   4.3925   4.3974
  4.4054   4.4222   4.4330   4.4702   4.4834   4.5220   4.5381   4.5941
  4.6050   4.6153   4.6448   4.6600   4.7142   4.7348   4.7418   4.7729
  4.8048   4.8128   4.8411   4.8934   4.9342   4.9534   5.0652   5.0946
  5.1138   5.1233   5.1874   5.1991   5.2298   5.2588   5.2801   5.3119
  5.3684   5.4049   5.4140   5.4414   5.4794   5.4933   5.5480   5.5619
  5.5973   5.6212   5.6253   5.6731   5.7026   5.8033   5.8343   5.8660
  5.8921   5.9646   6.0446   6.1189   6.2273   6.2370   6.2839   6.3496
  6.4304   6.4808   9.2262  11.4513  12.8620  13.6891  14.1866  14.3899
 --------------------------------------------------------------
 
          Ground-State Mulliken Net Atomic Charges

     Atom                 Charge (a.u.)
  ----------------------------------------
      1 C                     0.023814
      2 C                    -0.262140
      3 C                     0.046742
      4 H                     0.178690
      5 C                    -0.248218
      6 S                    -0.004008
      7 C                    -0.270999
      8 H                     0.101849
      9 H                     0.107291
     10 H                     0.106045
     11 C                    -0.371479
     12 H                     0.123443
     13 H                     0.139129
     14 H                     0.134754
     15 H                     0.195088
  ----------------------------------------
  Sum of atomic charges =     0.000000

 -----------------------------------------------------------------
                    Cartesian Multipole Moments
 -----------------------------------------------------------------
    Charge (ESU x 10^10)
                -0.0000
    Dipole Moment (Debye)
         X       1.1293      Y       0.0591      Z       0.9536
       Tot       1.4792
    Quadrupole Moments (Debye-Ang)
        XX     -51.9343     XY       3.4513     YY     -44.8380
        XZ       0.4067     YZ       1.4115     ZZ     -48.5811
    Octopole Moments (Debye-Ang^2)
       XXX     -52.5303    XXY     -22.3244    XYY      -9.6738
       YYY     -68.7727    XXZ      -2.6369    XYZ      -2.7289
       YYZ      -6.9144    XZZ     -15.2793    YZZ     -19.6526
       ZZZ       2.4672
    Hexadecapole Moments (Debye-Ang^3)
      XXXX    -219.7347   XXXY    -135.6190   XXYY    -145.1062
      XYYY    -122.9173   YYYY    -682.1165   XXXZ     -47.7189
      XXYZ     -29.8782   XYYZ     -17.6568   YYYZ     -84.9994
      XXZZ    -120.4516   XYZZ     -38.4042   YYZZ    -195.1557
      XZZZ     -52.7392   YZZZ     -90.2148   ZZZZ    -480.6650
 -----------------------------------------------------------------
 Total job time:  158.77s(wall), 156.90s(cpu) 
 Sun Jul 10 11:25:10 2022

        *************************************************************
        *                                                           *
        *  Thank you very much for using Q-Chem.  Have a nice day.  *
        *                                                           *
        *************************************************************


remove work dirs ./qchem1031976.0 -- ./qchem1031976.-1
rm -rf ./qchem1031976
