You are running Q-Chem version: 5.4.0

#
# job setting
#
local host:  exp-1-55
current dir: /expanse/lustre/scratch/theleonzhang/temp_project/Hydrogenated_Impropers_Test
input file:  Methylthiophene_Phi_20_Theta_100_Methylthiophene_Hydrogenated_Improper_Alternate.qcin
output file: 
nprocs     : 0
nthreads   : 1
#
# qchem installation setting
#
QC:          /cm/shared/apps/spack/cpu/opt/spack/linux-centos8-zen2/gcc-10.2.0/qchem-5.4-akfmr7b3t57bfs6qan3padb2wnb2i7cl
QCAUX:       /cm/shared/apps/spack/cpu/opt/spack/linux-centos8-zen2/gcc-10.2.0/qchem-5.4-akfmr7b3t57bfs6qan3padb2wnb2i7cl/qcaux
QCPROG:      /cm/shared/apps/spack/cpu/opt/spack/linux-centos8-zen2/gcc-10.2.0/qchem-5.4-akfmr7b3t57bfs6qan3padb2wnb2i7cl/exe/qcprog.exe_s
QCPROG_S:    /cm/shared/apps/spack/cpu/opt/spack/linux-centos8-zen2/gcc-10.2.0/qchem-5.4-akfmr7b3t57bfs6qan3padb2wnb2i7cl/exe/qcprog.exe_s
PARALLEL:    -DSERIAL
QCMPI:       mpich
#
# qchem directory setting
#
qcrun:       qchem1507148
QCSCRATCH:   .
QCLOCALSCR:  
QCTMPDIR:    .
QCFILEPREF:  ./qchem1507148
QCSAVEDIR:   
workdirs:    ./qchem1507148
workdir0:    ./qchem1507148
partmpdirs =  
#
# parallel setting
#
QCRSH:           ssh
QCMPI:           mpich
QCMPIRUN:        /cm/shared/apps/spack/cpu/opt/spack/linux-centos8-zen2/gcc-10.2.0/qchem-5.4-akfmr7b3t57bfs6qan3padb2wnb2i7cl/bin/mpi/mpirun_qchem
QCMACHINEFILE:   ./qchem1507148/hostfile

#
# env setting
#
exported envs:   QC QCAUX QCSCRATCH QCRUNNAME QCFILEPREF QCPROG QCPROG_S GUIFILE

Running Job 1 of 1 Methylthiophene_Phi_20_Theta_100_Methylthiophene_Hydrogenated_Improper_Alternate.qcin
qchem Methylthiophene_Phi_20_Theta_100_Methylthiophene_Hydrogenated_Improper_Alternate.qcin_1507148.0 ./qchem1507148/ 0
/cm/shared/apps/spack/cpu/opt/spack/linux-centos8-zen2/gcc-10.2.0/qchem-5.4-akfmr7b3t57bfs6qan3padb2wnb2i7cl/exe/qcprog.exe_s Methylthiophene_Phi_20_Theta_100_Methylthiophene_Hydrogenated_Improper_Alternate.qcin_1507148.0 ./qchem1507148/
                  Welcome to Q-Chem
     A Quantum Leap Into The Future Of Chemistry


 Q-Chem 5.4, Q-Chem, Inc., Pleasanton, CA (2021)

 License issued to: University of California, San Diego (site)

 E. Epifanovsky,  A. T. B. Gilbert,  Xintian Feng,  Joonho Lee,  Yuezhi Mao,  
 N. Mardirossian,  P. Pokhilko,  A. White,  M. Wormit,  M. P. Coons,  
 A. L. Dempwolff,  Zhengting Gan,  D. Hait,  P. R. Horn,  L. D. Jacobson,  
 I. Kaliman,  J. Kussmann,  A. W. Lange,  Ka Un Lao,  D. S. Levine,  Jie Liu,  
 S. C. McKenzie,  A. F. Morrison,  K. Nanda,  F. Plasser,  D. R. Rehn,  
 M. L. Vidal,  Zhi-Qiang You,  Ying Zhu,  B. Alam,  B. Albrecht,  
 A. Aldossary,  E. Alguire,  J. H. Andersen,  D. Barton,  K. Begam,  A. Behn,  
 Y. A. Bernard,  E. J. Berquist,  H. Burton,  A. Carreras,  K. Carter-Fenk,  
 R. Chakraborty,  A. D. Chien,  K. D. Closser,  V. Cofer-Shabica,  
 S. Dasgupta,  Jia Deng,  M. de Wergifosse,  M. Diedenhofen,  Hainam Do,  
 S. Ehlert,  Po-Tung Fang,  S. Fatehi,  Qingguo Feng,  J. Gayvert,  
 Qinghui Ge,  G. Gidofalvi,  M. Goldey,  J. Gomes,  C. Gonzalez-Espinoza,  
 S. Gulania,  A. Gunina,  M. W. D. Hanson-Heine,  P. H. P. Harbach,  
 A. W. Hauser,  M. F. Herbst,  M. Hernandez Vera,  M. Hodecker,  
 Z. C. Holden,  S. Houck,  Xunkun Huang,  Kerwin Hui,  B. C. Huynh,  
 M. Ivanov,  Hyunjun Ji,  Hanjie Jiang,  B. Kaduk,  S. Kaehler,  
 K. Khistyaev,  Jaehoon Kim,  P. Klunzinger,  Z. Koczor-Benda,  
 Joong Hoon Koh,  D. Kosenkov,  L. Koulias,  T. Kowalczyk,  C. M. Krauter,  
 K. Kue,  A. Kunitsa,  T. Kus,  A. Landau,  K. V. Lawler,  D. Lefrancois,  
 S. Lehtola,  Rain Li,  Yi-Pei Li,  Jiashu Liang,  M. Liebenthal,  
 Hung-Hsuan Lin,  You-Sheng Lin,  Fenglai Liu,  Kuan-Yu Liu,  
 M. Loipersberger,  A. Luenser,  A. Manjanath,  P. Manohar,  E. Mansoor,  
 S. F. Manzer,  Shan-Ping Mao,  A. V. Marenich,  T. Markovich,  S. Mason,  
 S. A. Maurer,  P. F. McLaughlin,  M. F. S. J. Menger,  J.-M. Mewes,  
 S. A. Mewes,  P. Morgante,  J. W. Mullinax,  T. S. Nguyen-Beck,  
 K. J. Oosterbaan,  G. Paran,  Alexander C. Paul,  Suranjan K. Paul,  
 F. Pavosevic,  Zheng Pei,  S. Prager,  E. I. Proynov,  E. Ramos,  B. Rana,  
 A. E. Rask,  A. Rettig,  R. M. Richard,  F. Rob,  E. Rossomme,  T. Scheele,  
 M. Scheurer,  M. Schneider,  N. Sergueev,  S. M. Sharada,  W. Skomorowski,  
 D. W. Small,  C. J. Stein,  Yu-Chuan Su,  E. J. Sundstrom,  Zhen Tao,  
 J. Thirman,  T. Tsuchimochi,  N. M. Tubman,  S. P. Veccham,  O. Vydrov,  
 J. Wenzel,  J. Witte,  A. Yamada,  Kun Yao,  S. Yeganeh,  S. R. Yost,  
 A. Zech,  Igor Ying Zhang,  Xing Zhang,  Yu Zhang,  D. Zuev,  
 A. Aspuru-Guzik,  A. T. Bell,  N. A. Besley,  K. B. Bravaya,  B. R. Brooks,  
 D. Casanova,  Jeng-Da Chai,  S. Coriani,  C. J. Cramer,  
 A. E. DePrince, III,  R. A. DiStasio Jr.,  A. Dreuw,  B. D. Dunietz,  
 T. R. Furlani,  W. A. Goddard III,  S. Grimme,  S. Hammes-Schiffer,  
 T. Head-Gordon,  W. J. Hehre,  Chao-Ping Hsu,  T.-C. Jagau,  Yousung Jung,  
 A. Klamt,  Jing Kong,  D. S. Lambrecht,  WanZhen Liang,  N. J. Mayhall,  
 C. W. McCurdy,  J. B. Neaton,  C. Ochsenfeld,  J. A. Parkhill,  R. Peverati,  
 V. A. Rassolov,  Yihan Shao,  L. V. Slipchenko,  T. Stauch,  R. P. Steele,  
 J. E. Subotnik,  A. J. W. Thom,  A. Tkatchenko,  D. G. Truhlar,  
 T. Van Voorhis,  T. A. Wesolowski,  K. B. Whaley,  H. L. Woodcock III,  
 P. M. Zimmerman,  S. Faraji,  P. M. W. Gill,  M. Head-Gordon,  
 J. M. Herbert,  A. I. Krylov

 Contributors to earlier versions of Q-Chem not listed above: 
 R. D. Adamson,  B. Austin,  R. Baer,  J. Baker,  G. J. O. Beran,  
 K. Brandhorst,  S. T. Brown,  E. F. C. Byrd,  A. K. Chakraborty,  
 G. K. L. Chan,  Chun-Min Chang,  Yunqing Chen,  C.-L. Cheng,  
 Siu Hung Chien,  D. M. Chipman,  D. L. Crittenden,  H. Dachsel,  
 R. J. Doerksen,  A. D. Dutoi,  R. G. Edgar,  J. Fosso-Tande,  
 L. Fusti-Molnar,  D. Ghosh,  A. Ghysels,  A. Golubeva-Zadorozhnaya,  
 J. Gonthier,  M. S. Gordon,  S. R. Gwaltney,  G. Hawkins,  J. E. Herr,  
 A. Heyden,  S. Hirata,  E. G. Hohenstein,  G. Kedziora,  F. J. Keil,  
 C. Kelley,  Jihan Kim,  R. A. King,  R. Z. Khaliullin,  P. P. Korambath,  
 W. Kurlancheek,  A. Laurent,  A. M. Lee,  M. S. Lee,  S. V. Levchenko,  
 Ching Yeh Lin,  D. Liotard,  E. Livshits,  R. C. Lochan,  I. Lotan,  
 L. A. Martinez-Martinez,  P. E. Maslen,  N. Nair,  D. P. O'Neill,  
 D. Neuhauser,  E. Neuscamman,  C. M. Oana,  R. Olivares-Amaya,  R. Olson,  
 T. M. Perrine,  B. Peters,  P. A. Pieniazek,  A. Prociuk,  Y. M. Rhee,  
 J. Ritchie,  M. A. Rohrdanz,  E. Rosta,  N. J. Russ,  H. F. Schaefer III,  
 M. W. Schmidt,  N. E. Schultz,  S. Sharma,  N. Shenvi,  C. D. Sherrill,  
 A. C. Simmonett,  A. Sodt,  T. Stein,  D. Stuck,  K. S. Thanthiriwatte,  
 V. Vanovschi,  L. Vogt,  Tao Wang,  A. Warshel,  M. A. Watson,  
 C. F. Williams,  Q. Wu,  X. Xu,  Jun Yang,  W. Zhang,  Yan Zhao

 Please cite Q-Chem as follows:
 Y. Shao et al., Mol. Phys. 113, 184-215 (2015)
 DOI: 10.1080/00268976.2014.952696

 Q-Chem 5.4.0 for Intel X86 EM64T Linux

 Parts of Q-Chem use Armadillo 9.800.1 (Horizon Scraper).
 http://arma.sourceforge.net/

 Q-Chem begins on Sun Jul 10 09:46:11 2022  

 Host: 
0

     Scratch files written to ./qchem1507148//
 May1621 |scratch|qcdevops|jenkins|workspace|build_RNUM    
 Processing $rem in /cm/shared/apps/spack/cpu/opt/spack/linux-centos8-zen2/gcc-10.2.0/qchem-5.4-akfmr7b3t57bfs6qan3padb2wnb2i7cl/config/preferences:
 Processing $rem in /home/theleonzhang/.qchemrc:
 Symmetry turned off for PCM/SM12/SMD calculation
 Core orbitals will be frozen

 Checking the input file for inconsistencies... 	...done.

--------------------------------------------------------------
User input:
--------------------------------------------------------------
$molecule
0 1
C	-0.232289	-0.535397	0.019910
C	0.063111	0.276103	1.119310
C	0.536411	1.576503	0.796610
H	-0.062989	-0.070397	2.156010
C	0.611911	1.783903	-0.592590
S	0.090011	0.350203	-1.466890
C	0.908511	2.598703	1.834510
H	0.762911	2.198703	2.856610
H	0.293711	3.518703	1.746110
H	1.970911	2.908303	1.746110
C	-0.232289	-1.976097	0.019910
H	-0.044589	-1.975797	-1.043690
H	0.574411	-2.679897	0.162210
H	-1.164989	-2.494997	-0.144590
H	0.936611	2.675903	-1.141690
$end

$rem
JOBTYPE		SP
EXCHANGE	HF
CORRELATION	pRIMP2
BASIS		cc-pvtz
METHOD		rimp2
AUX_BASIS	rimp2-cc-pvtz
SOLVENT_METHOD	PCM
PURECART	11111
SYMMETRY	false
MEM_TOTAL	110000
SCF_CONVERGENCE = 6
THRESH=10
$end



$solvent
dielectric 4.90
$end
--------------------------------------------------------------
 ----------------------------------------------------------------
             Standard Nuclear Orientation (Angstroms)
    I     Atom           X                Y                Z
 ----------------------------------------------------------------
    1      C      -0.2322890000    -0.5353970000     0.0199100000
    2      C       0.0631110000     0.2761030000     1.1193100000
    3      C       0.5364110000     1.5765030000     0.7966100000
    4      H      -0.0629890000    -0.0703970000     2.1560100000
    5      C       0.6119110000     1.7839030000    -0.5925900000
    6      S       0.0900110000     0.3502030000    -1.4668900000
    7      C       0.9085110000     2.5987030000     1.8345100000
    8      H       0.7629110000     2.1987030000     2.8566100000
    9      H       0.2937110000     3.5187030000     1.7461100000
   10      H       1.9709110000     2.9083030000     1.7461100000
   11      C      -0.2322890000    -1.9760970000     0.0199100000
   12      H      -0.0445890000    -1.9757970000    -1.0436900000
   13      H       0.5744110000    -2.6798970000     0.1622100000
   14      H      -1.1649890000    -2.4949970000    -0.1445900000
   15      H       0.9366110000     2.6759030000    -1.1416900000
 ----------------------------------------------------------------
 Nuclear Repulsion Energy =         345.45157749 hartrees
 There are       30 alpha and       30 beta electrons

 Q-Chem warning in module forms1/BasisType.C, line 2236:

 You are not using the predefined 5D/6D in this basis set.

 Requested basis set is cc-pVTZ
 There are 120 shells and 326 basis functions

 Total QAlloc Memory Limit 110000 MB
 Mega-Array Size       188 MB
 MEM_STATIC part       192 MB
 Discretize the solute cavity surface with Lebedev spheres
	Using 110 Lebedev grid points for each H atom
	Using 194 Lebedev grid points for other atoms
	Atomic van der Waals radii will be scaled by 1.20
 Remove points where switching function is < 1.0e-08
 Keep 1059 surface tesserae and discard 1179 interior tesserae
 Molecular Surface Area = 157.700 Angst**2

                       Distance Matrix (Angstroms)
             C (  1)   C (  2)   C (  3)   H (  4)   C (  5)   S (  6)
   C (  2)  1.398025
   C (  3)  2.377874  1.420981
   H (  4)  2.192672  1.100323  2.218001
   C (  5)  2.543026  2.346326  1.406624  3.383596
   S (  6)  1.760324  2.587401  2.612760  3.650441  1.758487
   C (  7)  3.796944  2.573069  1.503525  2.858543  2.577341  4.077369
   H (  8)  4.063569  2.684087  2.163801  2.514312  3.477332  4.749989
   H (  9)  4.437586  3.310666  2.175453  3.629999  2.929215  4.517107
   H ( 10)  4.437671  3.310749  2.175553  3.630072  2.929279  4.517193
   C ( 11)  1.440700  2.523558  3.716871  2.867626  3.901978  2.779590
   H ( 12)  1.800341  3.124295  4.042660  3.724106  3.843153  2.368014
   H ( 13)  2.295625  3.148873  4.303586  3.345296  4.527321  3.474207
   H ( 14)  2.176470  3.284002  4.511954  3.519354  4.654789  3.379152
   H ( 15)  3.609444  3.410889  2.264033  4.406381  1.096633  2.496271
             C (  7)   H (  8)   H (  9)   H ( 10)   C ( 11)   H ( 12)
   H (  8)  1.107198
   H (  9)  1.110042  1.787669
   H ( 10)  1.110117  1.787738  1.784822
   C ( 11)  5.052029  5.144535  5.783534  5.629496
   H ( 12)  5.488031  5.769822  6.171463  5.974919  1.080035
   H ( 13)  5.547236  5.576384  6.403919  5.973854  1.079976  1.527453
   H ( 14)  5.844828  5.895322  6.470482  6.527194  1.079929  1.527497
   H ( 15)  2.977334  4.030421  3.076202  3.076227  4.935255  4.755068
             H ( 13)   H ( 14)
   H ( 14)  1.775902
   H ( 15)  5.524123  5.670021
 
 Requested basis set is rimp2-cc-pVTZ
 There are 250 shells and 848 basis functions
 A cutoff of  1.0D-10 yielded   6184 shell pairs
 There are     45326 function pairs (     58294 Cartesian)
 Smallest overlap matrix eigenvalue = 1.18E-04

 Scale SEOQF with 1.000000e-01/1.000000e-01/1.000000e-01

 Standard Electronic Orientation quadrupole field applied
 Nucleus-field energy     =     0.0000000019 hartrees
 Guess from superposition of atomic densities
 Warning:  Energy on first SCF cycle will be non-variational
 SAD guess density has 60.000000 electrons

 -----------------------------------------------------------------------
  General SCF calculation program by
  Eric Jon Sundstrom, Paul Horn, Yuezhi Mao, Dmitri Zuev, Alec White,
  David Stuck, Shaama M.S., Shane Yost, Joonho Lee, David Small,
  Daniel Levine, Susi Lehtola, Hugh Burton, Evgeny Epifanovsky,
  Bang C. Huynh
 -----------------------------------------------------------------------
 Hartree-Fock
 A restricted SCF calculation will be
 performed using DIIS
 SCF converges when DIIS error is below 1.0e-06
 ---------------------------------------
  Cycle       Energy         DIIS error
 ---------------------------------------
    1    -632.1219446552      2.92e-02  
    2    -629.3310775765      1.93e-03  
    3    -629.4015802905      6.73e-04  
    4    -629.4090869890      3.35e-04  
    5    -629.4111186631      6.42e-05  
    6    -629.4112572594      2.63e-05  
    7    -629.4112930828      1.19e-05  
    8    -629.4113031399      4.86e-06  
    9    -629.4113045917      1.85e-06  
   10    -629.4113047766      5.45e-07  Convergence criterion met
 ---------------------------------------
 SCF time:   CPU 143.73s  wall 144.00s 

************** Final PCM Free Energy Summary **************
 G_electrostatic  =      -0.00495022 hartree =      -3.10630799 kcal/mol
 G_cavitation     =       0.00000000 hartree =       0.00000000 kcal/mol
 G_dispersion     =       0.00000000 hartree =       0.00000000 kcal/mol
 G_repulsion      =       0.00000000 hartree =       0.00000000 kcal/mol
 --------------------------------------------------
 Non-electrostatic Free Energy =       0.00000000 hartree =       0.00000000 kcal/mol
 Total                         =      -0.00495022 hartree =      -3.10630799 kcal/mol
 --------------------------------------------------
 SCF Energy (H0 + V/2)                       =    -629.41130478 
 Solute Internal Energy (H0)                 =    -629.40635456 
 Total Free Energy (H0 + V/2 + non-elec)     =    -629.41130478 hartree
                                             = -394961.55490178 kcal/mol
***********************************************************

 SCF   energy in the final basis set =     -629.4113047766
 Total energy in the final basis set =     -629.4113047766


 --------------------------------------------------------------
  Generalized many-body perturbation theory program
  by Joonho Lee, Fazle Rob, Xintian Feng, Evgeny Epifanovsky

 No regularization used 
 (reg. param. = 0.0000e+00)
  (P|Q)^-1/2 Time:  CPU 0.49 s  wall 0.49 s

 In RI-MP2 calculation: 
 # of frozen core orbitals: 11

 Components of the RIMP2 correlation energy:
        aaaa    correlation energy =        -0.1458792435 a.u.
        abab    correlation energy =        -0.8879631794 a.u.
        bbbb    correlation energy =        -0.1458792435 a.u.
        non-Brillouin singles      =        -0.0000000000 a.u.
        total same-spin energy     =        -0.2917584869 a.u.
        total opposite-spin energy =        -0.8879631794 a.u.

 Total  RIMP2   correlation energy =        -1.1797216663 a.u.
        RIMP2         total energy =      -630.5910264428 a.u.

 RI-MP2 Energy Time:  CPU 11.06 s  wall 11.11 s
 
 --------------------------------------------------------------
 
                    Orbital Energies (a.u.)
 --------------------------------------------------------------
 
 Alpha MOs
 -- Occupied --
-91.9793 -11.2714 -11.2603 -11.2471 -11.2317 -11.2270 -11.2142  -8.9794
 -6.6603  -6.6597  -6.6591  -1.1622  -1.0551  -0.9949  -0.9462  -0.8812
 -0.7486  -0.7195  -0.6478  -0.5896  -0.5764  -0.5666  -0.5529  -0.5475
 -0.5112  -0.4813  -0.4647  -0.4432  -0.3379  -0.3035
 -- Virtual --
  0.0970   0.1429   0.1514   0.1733   0.1876   0.1901   0.1975   0.2287
  0.2407   0.2439   0.2446   0.2787   0.2888   0.3130   0.3466   0.3493
  0.3768   0.4038   0.4074   0.4156   0.4465   0.4629   0.4766   0.4784
  0.4830   0.5046   0.5178   0.5287   0.5382   0.5643   0.5712   0.5891
  0.5982   0.6059   0.6121   0.6208   0.6363   0.6413   0.6420   0.6506
  0.6539   0.6622   0.6793   0.7028   0.7358   0.7510   0.7647   0.7790
  0.7946   0.8121   0.8402   0.8593   0.8621   0.8936   0.9082   0.9151
  0.9584   0.9687   0.9948   1.0130   1.0254   1.0398   1.0614   1.0748
  1.0828   1.0872   1.1243   1.1369   1.1593   1.1731   1.1832   1.2189
  1.2234   1.2433   1.2482   1.2639   1.2829   1.2943   1.3080   1.3280
  1.3374   1.3700   1.4016   1.4166   1.4326   1.4485   1.4504   1.4794
  1.4899   1.4970   1.5099   1.5281   1.5510   1.5565   1.5682   1.5963
  1.6067   1.6267   1.6343   1.6680   1.6832   1.6994   1.7125   1.7527
  1.7698   1.7745   1.7958   1.8322   1.8878   1.9156   1.9346   1.9622
  1.9912   2.0427   2.1076   2.1128   2.1846   2.1922   2.2140   2.2356
  2.2575   2.2878   2.3640   2.4228   2.4582   2.5016   2.5309   2.5592
  2.5791   2.5891   2.6235   2.6472   2.6750   2.6930   2.7072   2.7338
  2.7416   2.7570   2.7621   2.7922   2.8125   2.8426   2.8503   2.8933
  2.9106   2.9135   2.9402   2.9703   3.0068   3.0204   3.0496   3.0750
  3.0944   3.1113   3.1342   3.1380   3.1496   3.1724   3.1802   3.1922
  3.2226   3.2527   3.2556   3.2706   3.2772   3.3094   3.3205   3.3348
  3.3453   3.3592   3.3751   3.3812   3.3952   3.4004   3.4234   3.4336
  3.4509   3.4635   3.4840   3.4917   3.5167   3.5324   3.5353   3.5707
  3.5926   3.5949   3.6163   3.6255   3.6296   3.6416   3.6738   3.6853
  3.7021   3.7220   3.7300   3.7545   3.7612   3.7797   3.7958   3.8023
  3.8097   3.8403   3.8813   3.8880   3.9046   3.9189   3.9277   3.9501
  3.9579   3.9671   4.0111   4.0331   4.0385   4.0593   4.0923   4.1053
  4.1188   4.1443   4.1563   4.1856   4.1999   4.2133   4.2318   4.2582
  4.2702   4.2871   4.3115   4.3337   4.3431   4.3490   4.3888   4.4024
  4.4191   4.4336   4.4423   4.4544   4.4681   4.4885   4.5365   4.5683
  4.5903   4.6251   4.6493   4.6767   4.7034   4.7291   4.7663   4.7789
  4.7948   4.8040   4.8629   4.8911   4.9154   4.9639   5.0659   5.0824
  5.1043   5.1646   5.1860   5.1908   5.2429   5.2741   5.2862   5.3080
  5.3633   5.4013   5.4220   5.4443   5.4767   5.5022   5.5502   5.5695
  5.5936   5.6228   5.6285   5.6913   5.7157   5.8128   5.8355   5.8400
  5.9087   5.9863   6.0160   6.1305   6.2272   6.2458   6.2911   6.3443
  6.4303   6.5184   9.1536  11.4101  12.8846  13.8367  14.1878  14.4234
 --------------------------------------------------------------
 
          Ground-State Mulliken Net Atomic Charges

     Atom                 Charge (a.u.)
  ----------------------------------------
      1 C                     0.035038
      2 C                    -0.266303
      3 C                     0.045638
      4 H                     0.179776
      5 C                    -0.254432
      6 S                    -0.003816
      7 C                    -0.272405
      8 H                     0.101957
      9 H                     0.106954
     10 H                     0.106506
     11 C                    -0.361938
     12 H                     0.115963
     13 H                     0.147826
     14 H                     0.123653
     15 H                     0.195583
  ----------------------------------------
  Sum of atomic charges =     0.000000

 -----------------------------------------------------------------
                    Cartesian Multipole Moments
 -----------------------------------------------------------------
    Charge (ESU x 10^10)
                -0.0000
    Dipole Moment (Debye)
         X       0.6764      Y       0.1078      Z       0.8901
       Tot       1.1231
    Quadrupole Moments (Debye-Ang)
        XX     -52.8131     XY       2.4852     YY     -43.4391
        XZ       0.2486     YZ       1.3978     ZZ     -48.7298
    Octopole Moments (Debye-Ang^2)
       XXX     -37.0769    XXY     -27.7647    XYY      -4.5929
       YYY     -74.0962    XXZ      -2.0882    XYZ      -1.7437
       YYZ      -7.0716    XZZ     -10.3171    YZZ     -21.4707
       ZZZ       2.4546
    Hexadecapole Moments (Debye-Ang^3)
      XXXX    -145.5581   XXXY    -102.0190   XXYY    -150.8254
      XYYY     -93.0830   YYYY    -753.6071   XXXZ     -31.9980
      XXYZ     -30.8833   XYYZ     -13.1881   YYYZ     -95.5959
      XXZZ    -110.7365   XYZZ     -28.5354   YYZZ    -207.8531
      XZZZ     -36.1786   YZZZ     -98.7766   ZZZZ    -480.7253
 -----------------------------------------------------------------
 Total job time:  156.88s(wall), 155.17s(cpu) 
 Sun Jul 10 09:48:48 2022

        *************************************************************
        *                                                           *
        *  Thank you very much for using Q-Chem.  Have a nice day.  *
        *                                                           *
        *************************************************************


remove work dirs ./qchem1507148.0 -- ./qchem1507148.-1
rm -rf ./qchem1507148
