You are running Q-Chem version: 5.4.0

#
# job setting
#
local host:  exp-5-33
current dir: /expanse/lustre/scratch/theleonzhang/temp_project/Hydrogenated_Impropers_Test
input file:  Methylthiophene_Phi_30_Theta_30_Methylthiophene_Hydrogenated_Improper_Alternate.qcin
output file: 
nprocs     : 0
nthreads   : 1
#
# qchem installation setting
#
QC:          /cm/shared/apps/spack/cpu/opt/spack/linux-centos8-zen2/gcc-10.2.0/qchem-5.4-akfmr7b3t57bfs6qan3padb2wnb2i7cl
QCAUX:       /cm/shared/apps/spack/cpu/opt/spack/linux-centos8-zen2/gcc-10.2.0/qchem-5.4-akfmr7b3t57bfs6qan3padb2wnb2i7cl/qcaux
QCPROG:      /cm/shared/apps/spack/cpu/opt/spack/linux-centos8-zen2/gcc-10.2.0/qchem-5.4-akfmr7b3t57bfs6qan3padb2wnb2i7cl/exe/qcprog.exe_s
QCPROG_S:    /cm/shared/apps/spack/cpu/opt/spack/linux-centos8-zen2/gcc-10.2.0/qchem-5.4-akfmr7b3t57bfs6qan3padb2wnb2i7cl/exe/qcprog.exe_s
PARALLEL:    -DSERIAL
QCMPI:       mpich
#
# qchem directory setting
#
qcrun:       qchem2164587
QCSCRATCH:   .
QCLOCALSCR:  
QCTMPDIR:    .
QCFILEPREF:  ./qchem2164587
QCSAVEDIR:   
workdirs:    ./qchem2164587
workdir0:    ./qchem2164587
partmpdirs =  
#
# parallel setting
#
QCRSH:           ssh
QCMPI:           mpich
QCMPIRUN:        /cm/shared/apps/spack/cpu/opt/spack/linux-centos8-zen2/gcc-10.2.0/qchem-5.4-akfmr7b3t57bfs6qan3padb2wnb2i7cl/bin/mpi/mpirun_qchem
QCMACHINEFILE:   ./qchem2164587/hostfile

#
# env setting
#
exported envs:   QC QCAUX QCSCRATCH QCRUNNAME QCFILEPREF QCPROG QCPROG_S GUIFILE

Running Job 1 of 1 Methylthiophene_Phi_30_Theta_30_Methylthiophene_Hydrogenated_Improper_Alternate.qcin
qchem Methylthiophene_Phi_30_Theta_30_Methylthiophene_Hydrogenated_Improper_Alternate.qcin_2164587.0 ./qchem2164587/ 0
/cm/shared/apps/spack/cpu/opt/spack/linux-centos8-zen2/gcc-10.2.0/qchem-5.4-akfmr7b3t57bfs6qan3padb2wnb2i7cl/exe/qcprog.exe_s Methylthiophene_Phi_30_Theta_30_Methylthiophene_Hydrogenated_Improper_Alternate.qcin_2164587.0 ./qchem2164587/
                  Welcome to Q-Chem
     A Quantum Leap Into The Future Of Chemistry


 Q-Chem 5.4, Q-Chem, Inc., Pleasanton, CA (2021)

 License issued to: University of California, San Diego (site)

 E. Epifanovsky,  A. T. B. Gilbert,  Xintian Feng,  Joonho Lee,  Yuezhi Mao,  
 N. Mardirossian,  P. Pokhilko,  A. White,  M. Wormit,  M. P. Coons,  
 A. L. Dempwolff,  Zhengting Gan,  D. Hait,  P. R. Horn,  L. D. Jacobson,  
 I. Kaliman,  J. Kussmann,  A. W. Lange,  Ka Un Lao,  D. S. Levine,  Jie Liu,  
 S. C. McKenzie,  A. F. Morrison,  K. Nanda,  F. Plasser,  D. R. Rehn,  
 M. L. Vidal,  Zhi-Qiang You,  Ying Zhu,  B. Alam,  B. Albrecht,  
 A. Aldossary,  E. Alguire,  J. H. Andersen,  D. Barton,  K. Begam,  A. Behn,  
 Y. A. Bernard,  E. J. Berquist,  H. Burton,  A. Carreras,  K. Carter-Fenk,  
 R. Chakraborty,  A. D. Chien,  K. D. Closser,  V. Cofer-Shabica,  
 S. Dasgupta,  Jia Deng,  M. de Wergifosse,  M. Diedenhofen,  Hainam Do,  
 S. Ehlert,  Po-Tung Fang,  S. Fatehi,  Qingguo Feng,  J. Gayvert,  
 Qinghui Ge,  G. Gidofalvi,  M. Goldey,  J. Gomes,  C. Gonzalez-Espinoza,  
 S. Gulania,  A. Gunina,  M. W. D. Hanson-Heine,  P. H. P. Harbach,  
 A. W. Hauser,  M. F. Herbst,  M. Hernandez Vera,  M. Hodecker,  
 Z. C. Holden,  S. Houck,  Xunkun Huang,  Kerwin Hui,  B. C. Huynh,  
 M. Ivanov,  Hyunjun Ji,  Hanjie Jiang,  B. Kaduk,  S. Kaehler,  
 K. Khistyaev,  Jaehoon Kim,  P. Klunzinger,  Z. Koczor-Benda,  
 Joong Hoon Koh,  D. Kosenkov,  L. Koulias,  T. Kowalczyk,  C. M. Krauter,  
 K. Kue,  A. Kunitsa,  T. Kus,  A. Landau,  K. V. Lawler,  D. Lefrancois,  
 S. Lehtola,  Rain Li,  Yi-Pei Li,  Jiashu Liang,  M. Liebenthal,  
 Hung-Hsuan Lin,  You-Sheng Lin,  Fenglai Liu,  Kuan-Yu Liu,  
 M. Loipersberger,  A. Luenser,  A. Manjanath,  P. Manohar,  E. Mansoor,  
 S. F. Manzer,  Shan-Ping Mao,  A. V. Marenich,  T. Markovich,  S. Mason,  
 S. A. Maurer,  P. F. McLaughlin,  M. F. S. J. Menger,  J.-M. Mewes,  
 S. A. Mewes,  P. Morgante,  J. W. Mullinax,  T. S. Nguyen-Beck,  
 K. J. Oosterbaan,  G. Paran,  Alexander C. Paul,  Suranjan K. Paul,  
 F. Pavosevic,  Zheng Pei,  S. Prager,  E. I. Proynov,  E. Ramos,  B. Rana,  
 A. E. Rask,  A. Rettig,  R. M. Richard,  F. Rob,  E. Rossomme,  T. Scheele,  
 M. Scheurer,  M. Schneider,  N. Sergueev,  S. M. Sharada,  W. Skomorowski,  
 D. W. Small,  C. J. Stein,  Yu-Chuan Su,  E. J. Sundstrom,  Zhen Tao,  
 J. Thirman,  T. Tsuchimochi,  N. M. Tubman,  S. P. Veccham,  O. Vydrov,  
 J. Wenzel,  J. Witte,  A. Yamada,  Kun Yao,  S. Yeganeh,  S. R. Yost,  
 A. Zech,  Igor Ying Zhang,  Xing Zhang,  Yu Zhang,  D. Zuev,  
 A. Aspuru-Guzik,  A. T. Bell,  N. A. Besley,  K. B. Bravaya,  B. R. Brooks,  
 D. Casanova,  Jeng-Da Chai,  S. Coriani,  C. J. Cramer,  
 A. E. DePrince, III,  R. A. DiStasio Jr.,  A. Dreuw,  B. D. Dunietz,  
 T. R. Furlani,  W. A. Goddard III,  S. Grimme,  S. Hammes-Schiffer,  
 T. Head-Gordon,  W. J. Hehre,  Chao-Ping Hsu,  T.-C. Jagau,  Yousung Jung,  
 A. Klamt,  Jing Kong,  D. S. Lambrecht,  WanZhen Liang,  N. J. Mayhall,  
 C. W. McCurdy,  J. B. Neaton,  C. Ochsenfeld,  J. A. Parkhill,  R. Peverati,  
 V. A. Rassolov,  Yihan Shao,  L. V. Slipchenko,  T. Stauch,  R. P. Steele,  
 J. E. Subotnik,  A. J. W. Thom,  A. Tkatchenko,  D. G. Truhlar,  
 T. Van Voorhis,  T. A. Wesolowski,  K. B. Whaley,  H. L. Woodcock III,  
 P. M. Zimmerman,  S. Faraji,  P. M. W. Gill,  M. Head-Gordon,  
 J. M. Herbert,  A. I. Krylov

 Contributors to earlier versions of Q-Chem not listed above: 
 R. D. Adamson,  B. Austin,  R. Baer,  J. Baker,  G. J. O. Beran,  
 K. Brandhorst,  S. T. Brown,  E. F. C. Byrd,  A. K. Chakraborty,  
 G. K. L. Chan,  Chun-Min Chang,  Yunqing Chen,  C.-L. Cheng,  
 Siu Hung Chien,  D. M. Chipman,  D. L. Crittenden,  H. Dachsel,  
 R. J. Doerksen,  A. D. Dutoi,  R. G. Edgar,  J. Fosso-Tande,  
 L. Fusti-Molnar,  D. Ghosh,  A. Ghysels,  A. Golubeva-Zadorozhnaya,  
 J. Gonthier,  M. S. Gordon,  S. R. Gwaltney,  G. Hawkins,  J. E. Herr,  
 A. Heyden,  S. Hirata,  E. G. Hohenstein,  G. Kedziora,  F. J. Keil,  
 C. Kelley,  Jihan Kim,  R. A. King,  R. Z. Khaliullin,  P. P. Korambath,  
 W. Kurlancheek,  A. Laurent,  A. M. Lee,  M. S. Lee,  S. V. Levchenko,  
 Ching Yeh Lin,  D. Liotard,  E. Livshits,  R. C. Lochan,  I. Lotan,  
 L. A. Martinez-Martinez,  P. E. Maslen,  N. Nair,  D. P. O'Neill,  
 D. Neuhauser,  E. Neuscamman,  C. M. Oana,  R. Olivares-Amaya,  R. Olson,  
 T. M. Perrine,  B. Peters,  P. A. Pieniazek,  A. Prociuk,  Y. M. Rhee,  
 J. Ritchie,  M. A. Rohrdanz,  E. Rosta,  N. J. Russ,  H. F. Schaefer III,  
 M. W. Schmidt,  N. E. Schultz,  S. Sharma,  N. Shenvi,  C. D. Sherrill,  
 A. C. Simmonett,  A. Sodt,  T. Stein,  D. Stuck,  K. S. Thanthiriwatte,  
 V. Vanovschi,  L. Vogt,  Tao Wang,  A. Warshel,  M. A. Watson,  
 C. F. Williams,  Q. Wu,  X. Xu,  Jun Yang,  W. Zhang,  Yan Zhao

 Please cite Q-Chem as follows:
 Y. Shao et al., Mol. Phys. 113, 184-215 (2015)
 DOI: 10.1080/00268976.2014.952696

 Q-Chem 5.4.0 for Intel X86 EM64T Linux

 Parts of Q-Chem use Armadillo 9.800.1 (Horizon Scraper).
 http://arma.sourceforge.net/

 Q-Chem begins on Sun Jul 10 09:32:07 2022  

 Host: 
0

     Scratch files written to ./qchem2164587//
 May1621 |scratch|qcdevops|jenkins|workspace|build_RNUM    
 Processing $rem in /cm/shared/apps/spack/cpu/opt/spack/linux-centos8-zen2/gcc-10.2.0/qchem-5.4-akfmr7b3t57bfs6qan3padb2wnb2i7cl/config/preferences:
 Processing $rem in /home/theleonzhang/.qchemrc:
 Symmetry turned off for PCM/SM12/SMD calculation
 Core orbitals will be frozen

 Checking the input file for inconsistencies... 	...done.

--------------------------------------------------------------
User input:
--------------------------------------------------------------
$molecule
0 1
C	-0.343091	-0.485419	0.012108
C	0.088709	0.262481	1.111508
C	0.780709	1.460981	0.788808
H	-0.095691	-0.056919	2.148208
C	0.891009	1.652081	-0.600392
S	0.128109	0.330681	-1.474692
C	1.324609	2.402981	1.826708
H	1.111809	2.034381	2.848808
H	0.878909	3.415781	1.738308
H	2.424609	2.523381	1.738308
C	-0.343091	-1.926119	0.012108
H	0.592109	-1.926319	0.552208
H	0.066509	-2.629919	-0.697292
H	-0.816691	-2.445019	0.832308
H	1.365709	2.474081	-1.149492
$end

$rem
JOBTYPE		SP
EXCHANGE	HF
CORRELATION	pRIMP2
BASIS		cc-pvtz
METHOD		rimp2
AUX_BASIS	rimp2-cc-pvtz
SOLVENT_METHOD	PCM
PURECART	11111
SYMMETRY	false
MEM_TOTAL	110000
SCF_CONVERGENCE = 6
THRESH=10
$end



$solvent
dielectric 4.90
$end
--------------------------------------------------------------
 ----------------------------------------------------------------
             Standard Nuclear Orientation (Angstroms)
    I     Atom           X                Y                Z
 ----------------------------------------------------------------
    1      C      -0.3430910000    -0.4854190000     0.0121080000
    2      C       0.0887090000     0.2624810000     1.1115080000
    3      C       0.7807090000     1.4609810000     0.7888080000
    4      H      -0.0956910000    -0.0569190000     2.1482080000
    5      C       0.8910090000     1.6520810000    -0.6003920000
    6      S       0.1281090000     0.3306810000    -1.4746920000
    7      C       1.3246090000     2.4029810000     1.8267080000
    8      H       1.1118090000     2.0343810000     2.8488080000
    9      H       0.8789090000     3.4157810000     1.7383080000
   10      H       2.4246090000     2.5233810000     1.7383080000
   11      C      -0.3430910000    -1.9261190000     0.0121080000
   12      H       0.5921090000    -1.9263190000     0.5522080000
   13      H       0.0665090000    -2.6299190000    -0.6972920000
   14      H      -0.8166910000    -2.4450190000     0.8323080000
   15      H       1.3657090000     2.4740810000    -1.1494920000
 ----------------------------------------------------------------
 Nuclear Repulsion Energy =         346.27300717 hartrees
 There are       30 alpha and       30 beta electrons

 Q-Chem warning in module forms1/BasisType.C, line 2236:

 You are not using the predefined 5D/6D in this basis set.

 Requested basis set is cc-pVTZ
 There are 120 shells and 326 basis functions

 Total QAlloc Memory Limit 110000 MB
 Mega-Array Size       188 MB
 MEM_STATIC part       192 MB
 Discretize the solute cavity surface with Lebedev spheres
	Using 110 Lebedev grid points for each H atom
	Using 194 Lebedev grid points for other atoms
	Atomic van der Waals radii will be scaled by 1.20
 Remove points where switching function is < 1.0e-08
 Keep 1053 surface tesserae and discard 1185 interior tesserae
 Molecular Surface Area = 157.901 Angst**2

                       Distance Matrix (Angstroms)
             C (  1)   C (  2)   C (  3)   H (  4)   C (  5)   S (  6)
   C (  2)  1.398029
   C (  3)  2.377953  1.421056
   H (  4)  2.192656  1.100348  2.218122
   C (  5)  2.543043  2.346332  1.406614  3.383646
   S (  6)  1.760291  2.587399  2.612833  3.650442  1.758555
   C (  7)  3.796953  2.573072  1.503472  2.858622  2.577339  4.077411
   H (  8)  4.063618  2.684134  2.163796  2.514445  3.477339  4.750043
   H (  9)  4.437613  3.310679  2.175416  3.630084  2.929215  4.517180
   H ( 10)  4.437658  3.310736  2.175466  3.630135  2.929268  4.517213
   C ( 11)  1.440700  2.486986  3.652210  2.849217  3.834276  2.743310
   H ( 12)  1.800694  2.314535  3.400787  2.552438  3.771309  3.068822
   H ( 13)  2.295626  3.411485  4.410673  3.839728  4.361733  3.061584
   H ( 14)  2.176478  2.868494  4.220239  2.820364  4.664236  3.730872
   H ( 15)  3.609425  3.410869  2.263980  4.406413  1.096602  2.496312
             C (  7)   H (  8)   H (  9)   H ( 10)   C ( 11)   H ( 12)
   H (  8)  1.107176
   H (  9)  1.110057  1.787657
   H ( 10)  1.110095  1.787673  1.784815
   C ( 11)  4.981476  5.084207  5.745341  5.517063
   H ( 12)  4.572061  4.607776  5.479701  4.956281  1.079957
   H ( 13)  5.769183  5.951737  6.568305  6.168410  1.079979  1.527272
   H ( 14)  5.392319  5.277349  6.168053  6.000988  1.079945  1.527162
   H ( 15)  2.977333  4.030410  3.076225  3.076213  4.861180  4.780979
             H ( 13)   H ( 14)
   H ( 14)  1.775924
   H ( 15)  5.286135  5.734801
 
 Requested basis set is rimp2-cc-pVTZ
 There are 250 shells and 848 basis functions
 A cutoff of  1.0D-10 yielded   6250 shell pairs
 There are     45838 function pairs (     58946 Cartesian)
 Smallest overlap matrix eigenvalue = 1.17E-04

 Scale SEOQF with 1.000000e-01/1.000000e-01/1.000000e-01

 Standard Electronic Orientation quadrupole field applied
 Nucleus-field energy     =     0.0000000011 hartrees
 Guess from superposition of atomic densities
 Warning:  Energy on first SCF cycle will be non-variational
 SAD guess density has 60.000000 electrons

 -----------------------------------------------------------------------
  General SCF calculation program by
  Eric Jon Sundstrom, Paul Horn, Yuezhi Mao, Dmitri Zuev, Alec White,
  David Stuck, Shaama M.S., Shane Yost, Joonho Lee, David Small,
  Daniel Levine, Susi Lehtola, Hugh Burton, Evgeny Epifanovsky,
  Bang C. Huynh
 -----------------------------------------------------------------------
 Hartree-Fock
 A restricted SCF calculation will be
 performed using DIIS
 SCF converges when DIIS error is below 1.0e-06
 ---------------------------------------
  Cycle       Energy         DIIS error
 ---------------------------------------
    1    -632.1285116986      2.93e-02  
    2    -629.3239140113      1.93e-03  
    3    -629.3941658857      6.69e-04  
    4    -629.4015226799      3.42e-04  
    5    -629.4035694003      6.40e-05  
    6    -629.4037011915      2.61e-05  
    7    -629.4037340079      1.16e-05  
    8    -629.4037434636      5.36e-06  
    9    -629.4037452160      1.81e-06  
   10    -629.4037454380      5.75e-07  Convergence criterion met
 ---------------------------------------
 SCF time:   CPU 146.33s  wall 147.00s 

************** Final PCM Free Energy Summary **************
 G_electrostatic  =      -0.00542247 hartree =      -3.40265409 kcal/mol
 G_cavitation     =       0.00000000 hartree =       0.00000000 kcal/mol
 G_dispersion     =       0.00000000 hartree =       0.00000000 kcal/mol
 G_repulsion      =       0.00000000 hartree =       0.00000000 kcal/mol
 --------------------------------------------------
 Non-electrostatic Free Energy =       0.00000000 hartree =       0.00000000 kcal/mol
 Total                         =      -0.00542247 hartree =      -3.40265409 kcal/mol
 --------------------------------------------------
 SCF Energy (H0 + V/2)                       =    -629.40374544 
 Solute Internal Energy (H0)                 =    -629.39832296 
 Total Free Energy (H0 + V/2 + non-elec)     =    -629.40374544 hartree
                                             = -394956.81134521 kcal/mol
***********************************************************

 SCF   energy in the final basis set =     -629.4037454380
 Total energy in the final basis set =     -629.4037454380


 --------------------------------------------------------------
  Generalized many-body perturbation theory program
  by Joonho Lee, Fazle Rob, Xintian Feng, Evgeny Epifanovsky

 No regularization used 
 (reg. param. = 0.0000e+00)
  (P|Q)^-1/2 Time:  CPU 0.52 s  wall 0.52 s

 In RI-MP2 calculation: 
 # of frozen core orbitals: 11

 Components of the RIMP2 correlation energy:
        aaaa    correlation energy =        -0.1461965634 a.u.
        abab    correlation energy =        -0.8887487267 a.u.
        bbbb    correlation energy =        -0.1461965634 a.u.
        non-Brillouin singles      =        -0.0000000000 a.u.
        total same-spin energy     =        -0.2923931267 a.u.
        total opposite-spin energy =        -0.8887487267 a.u.

 Total  RIMP2   correlation energy =        -1.1811418534 a.u.
        RIMP2         total energy =      -630.5848872914 a.u.

 RI-MP2 Energy Time:  CPU 12.93 s  wall 12.98 s
 
 --------------------------------------------------------------
 
                    Orbital Energies (a.u.)
 --------------------------------------------------------------
 
 Alpha MOs
 -- Occupied --
-91.9785 -11.2794 -11.2540 -11.2482 -11.2273 -11.2272 -11.2175  -8.9783
 -6.6593  -6.6587  -6.6581  -1.1639  -1.0557  -0.9983  -0.9381  -0.8827
 -0.7435  -0.7219  -0.6463  -0.5893  -0.5764  -0.5720  -0.5552  -0.5441
 -0.5104  -0.4822  -0.4644  -0.4546  -0.3366  -0.2892
 -- Virtual --
  0.0953   0.1448   0.1553   0.1751   0.1830   0.1899   0.2100   0.2182
  0.2354   0.2405   0.2505   0.2572   0.2988   0.3218   0.3423   0.3547
  0.3807   0.3910   0.4032   0.4167   0.4424   0.4477   0.4689   0.4750
  0.4933   0.5095   0.5247   0.5280   0.5369   0.5582   0.5616   0.5864
  0.6025   0.6068   0.6118   0.6241   0.6308   0.6378   0.6417   0.6477
  0.6579   0.6660   0.6715   0.6954   0.7184   0.7474   0.7567   0.7761
  0.7942   0.8300   0.8369   0.8524   0.8629   0.8935   0.9060   0.9205
  0.9333   0.9710   1.0084   1.0279   1.0516   1.0557   1.0662   1.0784
  1.0841   1.0949   1.1180   1.1473   1.1541   1.1779   1.1956   1.1966
  1.2205   1.2496   1.2595   1.2708   1.2716   1.2841   1.3171   1.3274
  1.3401   1.3694   1.3864   1.4059   1.4285   1.4397   1.4573   1.4775
  1.4983   1.5053   1.5118   1.5298   1.5507   1.5589   1.5640   1.5717
  1.6183   1.6318   1.6565   1.6710   1.6843   1.6950   1.7156   1.7577
  1.7675   1.7958   1.8127   1.8316   1.8755   1.9033   1.9476   1.9879
  1.9997   2.0381   2.0855   2.1250   2.1801   2.1844   2.2172   2.2509
  2.2675   2.2805   2.3209   2.4086   2.4342   2.4808   2.5164   2.5432
  2.5673   2.6019   2.6231   2.6597   2.6716   2.6965   2.7163   2.7401
  2.7557   2.7700   2.7730   2.7921   2.8072   2.8353   2.8534   2.8917
  2.8964   2.9465   2.9695   2.9889   3.0030   3.0327   3.0610   3.0753
  3.0971   3.1125   3.1142   3.1268   3.1494   3.1632   3.1651   3.1872
  3.1986   3.2420   3.2517   3.2776   3.2977   3.3027   3.3085   3.3289
  3.3366   3.3668   3.3853   3.3987   3.4033   3.4199   3.4223   3.4335
  3.4483   3.4685   3.4865   3.4922   3.5037   3.5236   3.5458   3.5656
  3.5753   3.5910   3.6079   3.6220   3.6331   3.6447   3.6539   3.6799
  3.6814   3.7047   3.7269   3.7306   3.7539   3.7730   3.7925   3.8071
  3.8155   3.8246   3.8697   3.8949   3.9094   3.9309   3.9505   3.9591
  3.9777   4.0024   4.0145   4.0337   4.0561   4.0763   4.1067   4.1243
  4.1420   4.1563   4.1620   4.1944   4.2162   4.2347   4.2472   4.2781
  4.2897   4.3027   4.3180   4.3495   4.3627   4.3771   4.3876   4.4039
  4.4106   4.4345   4.4482   4.4606   4.4886   4.5045   4.5456   4.5726
  4.6088   4.6324   4.6621   4.6679   4.7146   4.7437   4.7528   4.7916
  4.8107   4.8416   4.8634   4.8871   4.9113   4.9474   5.0727   5.0974
  5.0982   5.1314   5.1770   5.1953   5.2212   5.2640   5.2927   5.3293
  5.3674   5.4031   5.4078   5.4145   5.4643   5.5118   5.5506   5.5583
  5.6127   5.6177   5.6243   5.6816   5.7083   5.8136   5.8251   5.8637
  5.9571   5.9704   6.0138   6.1440   6.2284   6.2332   6.2841   6.3769
  6.4024   6.4714   9.1749  11.4810  12.8604  13.8304  14.1768  14.3205
 --------------------------------------------------------------
 
          Ground-State Mulliken Net Atomic Charges

     Atom                 Charge (a.u.)
  ----------------------------------------
      1 C                     0.027270
      2 C                    -0.266521
      3 C                     0.038231
      4 H                     0.175379
      5 C                    -0.268277
      6 S                     0.005760
      7 C                    -0.270358
      8 H                     0.101497
      9 H                     0.107498
     10 H                     0.106097
     11 C                    -0.389497
     12 H                     0.150549
     13 H                     0.160510
     14 H                     0.129188
     15 H                     0.192671
  ----------------------------------------
  Sum of atomic charges =     0.000000

 -----------------------------------------------------------------
                    Cartesian Multipole Moments
 -----------------------------------------------------------------
    Charge (ESU x 10^10)
                -0.0000
    Dipole Moment (Debye)
         X       1.2798      Y      -0.4826      Z       1.7869
       Tot       2.2502
    Quadrupole Moments (Debye-Ang)
        XX     -52.6252     XY       2.5683     YY     -44.5884
        XZ      -0.1423     YZ      -0.3723     ZZ     -48.4413
    Octopole Moments (Debye-Ang^2)
       XXX     -52.9919    XXY     -21.1279    XYY      -7.8823
       YYY     -71.5464    XXZ      -2.4594    XYZ      -0.0752
       YYZ      -3.2143    XZZ     -15.6611    YZZ     -21.4400
       ZZZ       0.5374
    Hexadecapole Moments (Debye-Ang^3)
      XXXX    -219.2677   XXXY    -136.1152   XXYY    -150.8234
      XYYY    -128.6578   YYYY    -678.8114   XXXZ     -45.5643
      XXYZ     -29.0428   XYYZ     -22.8307   YYYZ     -85.1464
      XXZZ    -120.0959   XYZZ     -37.4466   YYZZ    -190.6194
      XZZZ     -50.4518   YZZZ     -85.8313   ZZZZ    -483.0393
 -----------------------------------------------------------------
 Total job time:  161.93s(wall), 159.66s(cpu) 
 Sun Jul 10 09:34:49 2022

        *************************************************************
        *                                                           *
        *  Thank you very much for using Q-Chem.  Have a nice day.  *
        *                                                           *
        *************************************************************


remove work dirs ./qchem2164587.0 -- ./qchem2164587.-1
rm -rf ./qchem2164587
