You are running Q-Chem version: 5.4.0

#
# job setting
#
local host:  exp-4-11
current dir: /expanse/lustre/scratch/theleonzhang/temp_project/Hydrogenated_Impropers_Test
input file:  Methylthiophene_Phi_15_Theta_20_Methylthiophene_Hydrogenated_Improper.qcin
output file: 
nprocs     : 0
nthreads   : 1
#
# qchem installation setting
#
QC:          /cm/shared/apps/spack/cpu/opt/spack/linux-centos8-zen2/gcc-10.2.0/qchem-5.4-akfmr7b3t57bfs6qan3padb2wnb2i7cl
QCAUX:       /cm/shared/apps/spack/cpu/opt/spack/linux-centos8-zen2/gcc-10.2.0/qchem-5.4-akfmr7b3t57bfs6qan3padb2wnb2i7cl/qcaux
QCPROG:      /cm/shared/apps/spack/cpu/opt/spack/linux-centos8-zen2/gcc-10.2.0/qchem-5.4-akfmr7b3t57bfs6qan3padb2wnb2i7cl/exe/qcprog.exe_s
QCPROG_S:    /cm/shared/apps/spack/cpu/opt/spack/linux-centos8-zen2/gcc-10.2.0/qchem-5.4-akfmr7b3t57bfs6qan3padb2wnb2i7cl/exe/qcprog.exe_s
PARALLEL:    -DSERIAL
QCMPI:       mpich
#
# qchem directory setting
#
qcrun:       qchem3409239
QCSCRATCH:   .
QCLOCALSCR:  
QCTMPDIR:    .
QCFILEPREF:  ./qchem3409239
QCSAVEDIR:   
workdirs:    ./qchem3409239
workdir0:    ./qchem3409239
partmpdirs =  
#
# parallel setting
#
QCRSH:           ssh
QCMPI:           mpich
QCMPIRUN:        /cm/shared/apps/spack/cpu/opt/spack/linux-centos8-zen2/gcc-10.2.0/qchem-5.4-akfmr7b3t57bfs6qan3padb2wnb2i7cl/bin/mpi/mpirun_qchem
QCMACHINEFILE:   ./qchem3409239/hostfile

#
# env setting
#
exported envs:   QC QCAUX QCSCRATCH QCRUNNAME QCFILEPREF QCPROG QCPROG_S GUIFILE

Running Job 1 of 1 Methylthiophene_Phi_15_Theta_20_Methylthiophene_Hydrogenated_Improper.qcin
qchem Methylthiophene_Phi_15_Theta_20_Methylthiophene_Hydrogenated_Improper.qcin_3409239.0 ./qchem3409239/ 0
/cm/shared/apps/spack/cpu/opt/spack/linux-centos8-zen2/gcc-10.2.0/qchem-5.4-akfmr7b3t57bfs6qan3padb2wnb2i7cl/exe/qcprog.exe_s Methylthiophene_Phi_15_Theta_20_Methylthiophene_Hydrogenated_Improper.qcin_3409239.0 ./qchem3409239/
                  Welcome to Q-Chem
     A Quantum Leap Into The Future Of Chemistry


 Q-Chem 5.4, Q-Chem, Inc., Pleasanton, CA (2021)

 License issued to: University of California, San Diego (site)

 E. Epifanovsky,  A. T. B. Gilbert,  Xintian Feng,  Joonho Lee,  Yuezhi Mao,  
 N. Mardirossian,  P. Pokhilko,  A. White,  M. Wormit,  M. P. Coons,  
 A. L. Dempwolff,  Zhengting Gan,  D. Hait,  P. R. Horn,  L. D. Jacobson,  
 I. Kaliman,  J. Kussmann,  A. W. Lange,  Ka Un Lao,  D. S. Levine,  Jie Liu,  
 S. C. McKenzie,  A. F. Morrison,  K. Nanda,  F. Plasser,  D. R. Rehn,  
 M. L. Vidal,  Zhi-Qiang You,  Ying Zhu,  B. Alam,  B. Albrecht,  
 A. Aldossary,  E. Alguire,  J. H. Andersen,  D. Barton,  K. Begam,  A. Behn,  
 Y. A. Bernard,  E. J. Berquist,  H. Burton,  A. Carreras,  K. Carter-Fenk,  
 R. Chakraborty,  A. D. Chien,  K. D. Closser,  V. Cofer-Shabica,  
 S. Dasgupta,  Jia Deng,  M. de Wergifosse,  M. Diedenhofen,  Hainam Do,  
 S. Ehlert,  Po-Tung Fang,  S. Fatehi,  Qingguo Feng,  J. Gayvert,  
 Qinghui Ge,  G. Gidofalvi,  M. Goldey,  J. Gomes,  C. Gonzalez-Espinoza,  
 S. Gulania,  A. Gunina,  M. W. D. Hanson-Heine,  P. H. P. Harbach,  
 A. W. Hauser,  M. F. Herbst,  M. Hernandez Vera,  M. Hodecker,  
 Z. C. Holden,  S. Houck,  Xunkun Huang,  Kerwin Hui,  B. C. Huynh,  
 M. Ivanov,  Hyunjun Ji,  Hanjie Jiang,  B. Kaduk,  S. Kaehler,  
 K. Khistyaev,  Jaehoon Kim,  P. Klunzinger,  Z. Koczor-Benda,  
 Joong Hoon Koh,  D. Kosenkov,  L. Koulias,  T. Kowalczyk,  C. M. Krauter,  
 K. Kue,  A. Kunitsa,  T. Kus,  A. Landau,  K. V. Lawler,  D. Lefrancois,  
 S. Lehtola,  Rain Li,  Yi-Pei Li,  Jiashu Liang,  M. Liebenthal,  
 Hung-Hsuan Lin,  You-Sheng Lin,  Fenglai Liu,  Kuan-Yu Liu,  
 M. Loipersberger,  A. Luenser,  A. Manjanath,  P. Manohar,  E. Mansoor,  
 S. F. Manzer,  Shan-Ping Mao,  A. V. Marenich,  T. Markovich,  S. Mason,  
 S. A. Maurer,  P. F. McLaughlin,  M. F. S. J. Menger,  J.-M. Mewes,  
 S. A. Mewes,  P. Morgante,  J. W. Mullinax,  T. S. Nguyen-Beck,  
 K. J. Oosterbaan,  G. Paran,  Alexander C. Paul,  Suranjan K. Paul,  
 F. Pavosevic,  Zheng Pei,  S. Prager,  E. I. Proynov,  E. Ramos,  B. Rana,  
 A. E. Rask,  A. Rettig,  R. M. Richard,  F. Rob,  E. Rossomme,  T. Scheele,  
 M. Scheurer,  M. Schneider,  N. Sergueev,  S. M. Sharada,  W. Skomorowski,  
 D. W. Small,  C. J. Stein,  Yu-Chuan Su,  E. J. Sundstrom,  Zhen Tao,  
 J. Thirman,  T. Tsuchimochi,  N. M. Tubman,  S. P. Veccham,  O. Vydrov,  
 J. Wenzel,  J. Witte,  A. Yamada,  Kun Yao,  S. Yeganeh,  S. R. Yost,  
 A. Zech,  Igor Ying Zhang,  Xing Zhang,  Yu Zhang,  D. Zuev,  
 A. Aspuru-Guzik,  A. T. Bell,  N. A. Besley,  K. B. Bravaya,  B. R. Brooks,  
 D. Casanova,  Jeng-Da Chai,  S. Coriani,  C. J. Cramer,  
 A. E. DePrince, III,  R. A. DiStasio Jr.,  A. Dreuw,  B. D. Dunietz,  
 T. R. Furlani,  W. A. Goddard III,  S. Grimme,  S. Hammes-Schiffer,  
 T. Head-Gordon,  W. J. Hehre,  Chao-Ping Hsu,  T.-C. Jagau,  Yousung Jung,  
 A. Klamt,  Jing Kong,  D. S. Lambrecht,  WanZhen Liang,  N. J. Mayhall,  
 C. W. McCurdy,  J. B. Neaton,  C. Ochsenfeld,  J. A. Parkhill,  R. Peverati,  
 V. A. Rassolov,  Yihan Shao,  L. V. Slipchenko,  T. Stauch,  R. P. Steele,  
 J. E. Subotnik,  A. J. W. Thom,  A. Tkatchenko,  D. G. Truhlar,  
 T. Van Voorhis,  T. A. Wesolowski,  K. B. Whaley,  H. L. Woodcock III,  
 P. M. Zimmerman,  S. Faraji,  P. M. W. Gill,  M. Head-Gordon,  
 J. M. Herbert,  A. I. Krylov

 Contributors to earlier versions of Q-Chem not listed above: 
 R. D. Adamson,  B. Austin,  R. Baer,  J. Baker,  G. J. O. Beran,  
 K. Brandhorst,  S. T. Brown,  E. F. C. Byrd,  A. K. Chakraborty,  
 G. K. L. Chan,  Chun-Min Chang,  Yunqing Chen,  C.-L. Cheng,  
 Siu Hung Chien,  D. M. Chipman,  D. L. Crittenden,  H. Dachsel,  
 R. J. Doerksen,  A. D. Dutoi,  R. G. Edgar,  J. Fosso-Tande,  
 L. Fusti-Molnar,  D. Ghosh,  A. Ghysels,  A. Golubeva-Zadorozhnaya,  
 J. Gonthier,  M. S. Gordon,  S. R. Gwaltney,  G. Hawkins,  J. E. Herr,  
 A. Heyden,  S. Hirata,  E. G. Hohenstein,  G. Kedziora,  F. J. Keil,  
 C. Kelley,  Jihan Kim,  R. A. King,  R. Z. Khaliullin,  P. P. Korambath,  
 W. Kurlancheek,  A. Laurent,  A. M. Lee,  M. S. Lee,  S. V. Levchenko,  
 Ching Yeh Lin,  D. Liotard,  E. Livshits,  R. C. Lochan,  I. Lotan,  
 L. A. Martinez-Martinez,  P. E. Maslen,  N. Nair,  D. P. O'Neill,  
 D. Neuhauser,  E. Neuscamman,  C. M. Oana,  R. Olivares-Amaya,  R. Olson,  
 T. M. Perrine,  B. Peters,  P. A. Pieniazek,  A. Prociuk,  Y. M. Rhee,  
 J. Ritchie,  M. A. Rohrdanz,  E. Rosta,  N. J. Russ,  H. F. Schaefer III,  
 M. W. Schmidt,  N. E. Schultz,  S. Sharma,  N. Shenvi,  C. D. Sherrill,  
 A. C. Simmonett,  A. Sodt,  T. Stein,  D. Stuck,  K. S. Thanthiriwatte,  
 V. Vanovschi,  L. Vogt,  Tao Wang,  A. Warshel,  M. A. Watson,  
 C. F. Williams,  Q. Wu,  X. Xu,  Jun Yang,  W. Zhang,  Yan Zhao

 Please cite Q-Chem as follows:
 Y. Shao et al., Mol. Phys. 113, 184-215 (2015)
 DOI: 10.1080/00268976.2014.952696

 Q-Chem 5.4.0 for Intel X86 EM64T Linux

 Parts of Q-Chem use Armadillo 9.800.1 (Horizon Scraper).
 http://arma.sourceforge.net/

 Q-Chem begins on Sun Jul 10 08:58:54 2022  

 Host: 
0

     Scratch files written to ./qchem3409239//
 May1621 |scratch|qcdevops|jenkins|workspace|build_RNUM    
 Processing $rem in /cm/shared/apps/spack/cpu/opt/spack/linux-centos8-zen2/gcc-10.2.0/qchem-5.4-akfmr7b3t57bfs6qan3padb2wnb2i7cl/config/preferences:
 Processing $rem in /home/theleonzhang/.qchemrc:
 Symmetry turned off for PCM/SM12/SMD calculation
 Core orbitals will be frozen

 Checking the input file for inconsistencies... 	...done.

--------------------------------------------------------------
User input:
--------------------------------------------------------------
$molecule
0 1
C	-0.170819	-0.553191	0.016152
C	0.052681	0.281009	1.115552
C	0.410881	1.617709	0.792852
H	-0.042719	-0.075291	2.152252
C	0.468081	1.830809	-0.596348
S	0.073081	0.357109	-1.470648
C	0.692481	2.668409	1.830752
H	0.582281	2.257309	2.852852
H	-0.000119	3.531409	1.742352
H	1.723781	3.069409	1.742352
C	-0.170819	-1.993891	0.016152
H	-1.185619	-1.993591	-0.353348
H	0.109381	-2.697691	-0.753648
H	-0.494719	-2.512791	0.906152
H	0.713781	2.747709	-1.145448
$end

$rem
JOBTYPE		SP
EXCHANGE	HF
CORRELATION	pRIMP2
BASIS		cc-pvtz
METHOD		rimp2
AUX_BASIS	rimp2-cc-pvtz
SOLVENT_METHOD	PCM
PURECART	11111
SYMMETRY	false
MEM_TOTAL	110000
SCF_CONVERGENCE = 6
THRESH=10
$end



$solvent
dielectric 4.90
$end
--------------------------------------------------------------
 ----------------------------------------------------------------
             Standard Nuclear Orientation (Angstroms)
    I     Atom           X                Y                Z
 ----------------------------------------------------------------
    1      C      -0.1708190000    -0.5531910000     0.0161520000
    2      C       0.0526810000     0.2810090000     1.1155520000
    3      C       0.4108810000     1.6177090000     0.7928520000
    4      H      -0.0427190000    -0.0752910000     2.1522520000
    5      C       0.4680810000     1.8308090000    -0.5963480000
    6      S       0.0730810000     0.3571090000    -1.4706480000
    7      C       0.6924810000     2.6684090000     1.8307520000
    8      H       0.5822810000     2.2573090000     2.8528520000
    9      H      -0.0001190000     3.5314090000     1.7423520000
   10      H       1.7237810000     3.0694090000     1.7423520000
   11      C      -0.1708190000    -1.9938910000     0.0161520000
   12      H      -1.1856190000    -1.9935910000    -0.3533480000
   13      H       0.1093810000    -2.6976910000    -0.7536480000
   14      H      -0.4947190000    -2.5127910000     0.9061520000
   15      H       0.7137810000     2.7477090000    -1.1454480000
 ----------------------------------------------------------------
 Nuclear Repulsion Energy =         344.62524710 hartrees
 There are       30 alpha and       30 beta electrons

 Q-Chem warning in module forms1/BasisType.C, line 2236:

 You are not using the predefined 5D/6D in this basis set.

 Requested basis set is cc-pVTZ
 There are 120 shells and 326 basis functions

 Total QAlloc Memory Limit 110000 MB
 Mega-Array Size       188 MB
 MEM_STATIC part       192 MB
 Discretize the solute cavity surface with Lebedev spheres
	Using 110 Lebedev grid points for each H atom
	Using 194 Lebedev grid points for other atoms
	Atomic van der Waals radii will be scaled by 1.20
 Remove points where switching function is < 1.0e-08
 Keep 1059 surface tesserae and discard 1179 interior tesserae
 Molecular Surface Area = 158.361 Angst**2

                       Distance Matrix (Angstroms)
             C (  1)   C (  2)   C (  3)   H (  4)   C (  5)   S (  6)
   C (  2)  1.398042
   C (  3)  2.377908  1.420989
   H (  4)  2.192652  1.100363  2.218101
   C (  5)  2.542991  2.346282  1.406613  3.383628
   S (  6)  1.760315  2.587400  2.612787  3.650450  1.758470
   C (  7)  3.796942  2.573040  1.503498  2.858631  2.577352  4.077377
   H (  8)  4.063611  2.684110  2.163808  2.514456  3.477344  4.750021
   H (  9)  4.437664  3.310705  2.175481  3.630168  2.929295  4.517179
   H ( 10)  4.437624  3.310684  2.175475  3.630107  2.929237  4.517162
   C ( 11)  1.440700  2.536494  3.739691  2.874084  3.925771  2.792358
   H ( 12)  1.800306  2.977391  4.111456  3.356207  4.173704  2.891103
   H ( 13)  2.295645  3.517069  4.594044  3.917189  4.545407  3.138026
   H ( 14)  2.176475  2.854613  4.230127  2.774613  4.695887  3.769337
   H ( 15)  3.609401  3.410833  2.263991  4.406410  1.096624  2.496241
             C (  7)   H (  8)   H (  9)   H ( 10)   C ( 11)   H ( 12)
   H (  8)  1.107175
   H (  9)  1.110080  1.787661
   H ( 10)  1.110043  1.787663  1.784734
   C ( 11)  5.076918  5.165920  5.791187  5.675058
   H ( 12)  5.480127  5.610289  6.026856  6.204074  1.079977
   H ( 13)  5.984493  6.146747  6.711460  6.488123  1.080018  1.527423
   H ( 14)  5.395291  5.263404  6.121782  6.064811  1.079939  1.527499
   H ( 15)  2.977332  4.030408  3.076236  3.076196  4.961311  5.168662
             H ( 13)   H ( 14)
   H ( 14)  1.775968
   H ( 15)  5.492831  5.774287
 
 Requested basis set is rimp2-cc-pVTZ
 There are 250 shells and 848 basis functions
 A cutoff of  1.0D-10 yielded   6160 shell pairs
 There are     45164 function pairs (     58076 Cartesian)
 Smallest overlap matrix eigenvalue = 9.58E-05

 Scale SEOQF with 1.000000e-01/1.000000e-01/1.000000e-01

 Standard Electronic Orientation quadrupole field applied
 Nucleus-field energy     =     0.0000000021 hartrees
 Guess from superposition of atomic densities
 Warning:  Energy on first SCF cycle will be non-variational
 SAD guess density has 60.000000 electrons

 -----------------------------------------------------------------------
  General SCF calculation program by
  Eric Jon Sundstrom, Paul Horn, Yuezhi Mao, Dmitri Zuev, Alec White,
  David Stuck, Shaama M.S., Shane Yost, Joonho Lee, David Small,
  Daniel Levine, Susi Lehtola, Hugh Burton, Evgeny Epifanovsky,
  Bang C. Huynh
 -----------------------------------------------------------------------
 Hartree-Fock
 A restricted SCF calculation will be
 performed using DIIS
 SCF converges when DIIS error is below 1.0e-06
 ---------------------------------------
  Cycle       Energy         DIIS error
 ---------------------------------------
    1    -632.0984360911      2.92e-02  
    2    -629.3367962116      1.94e-03  
    3    -629.4071862213      6.99e-04  
    4    -629.4148749431      3.57e-04  
    5    -629.4171220046      6.38e-05  
    6    -629.4172591845      2.62e-05  
    7    -629.4172928203      1.14e-05  
    8    -629.4173019973      5.15e-06  
    9    -629.4173034880      1.69e-06  
   10    -629.4173036715      6.29e-07  Convergence criterion met
 ---------------------------------------
 SCF time:   CPU 143.14s  wall 144.00s 

************** Final PCM Free Energy Summary **************
 G_electrostatic  =      -0.00568917 hartree =      -3.57001033 kcal/mol
 G_cavitation     =       0.00000000 hartree =       0.00000000 kcal/mol
 G_dispersion     =       0.00000000 hartree =       0.00000000 kcal/mol
 G_repulsion      =       0.00000000 hartree =       0.00000000 kcal/mol
 --------------------------------------------------
 Non-electrostatic Free Energy =       0.00000000 hartree =       0.00000000 kcal/mol
 Total                         =      -0.00568917 hartree =      -3.57001033 kcal/mol
 --------------------------------------------------
 SCF Energy (H0 + V/2)                       =    -629.41730367 
 Solute Internal Energy (H0)                 =    -629.41161450 
 Total Free Energy (H0 + V/2 + non-elec)     =    -629.41730367 hartree
                                             = -394965.31926515 kcal/mol
***********************************************************

 SCF   energy in the final basis set =     -629.4173036715
 Total energy in the final basis set =     -629.4173036715


 --------------------------------------------------------------
  Generalized many-body perturbation theory program
  by Joonho Lee, Fazle Rob, Xintian Feng, Evgeny Epifanovsky

 No regularization used 
 (reg. param. = 0.0000e+00)
  (P|Q)^-1/2 Time:  CPU 0.48 s  wall 0.48 s

 In RI-MP2 calculation: 
 # of frozen core orbitals: 11

 Components of the RIMP2 correlation energy:
        aaaa    correlation energy =        -0.1453955269 a.u.
        abab    correlation energy =        -0.8863662052 a.u.
        bbbb    correlation energy =        -0.1453955269 a.u.
        non-Brillouin singles      =        -0.0000000000 a.u.
        total same-spin energy     =        -0.2907910538 a.u.
        total opposite-spin energy =        -0.8863662052 a.u.

 Total  RIMP2   correlation energy =        -1.1771572590 a.u.
        RIMP2         total energy =      -630.5944609305 a.u.

 RI-MP2 Energy Time:  CPU 11.01 s  wall 11.05 s
 
 --------------------------------------------------------------
 
                    Orbital Energies (a.u.)
 --------------------------------------------------------------
 
 Alpha MOs
 -- Occupied --
-91.9777 -11.2816 -11.2520 -11.2470 -11.2265 -11.2259 -11.2194  -8.9776
 -6.6586  -6.6581  -6.6574  -1.1604  -1.0555  -0.9967  -0.9433  -0.8826
 -0.7450  -0.7189  -0.6467  -0.5891  -0.5744  -0.5710  -0.5504  -0.5465
 -0.5095  -0.4913  -0.4615  -0.4556  -0.3385  -0.2897
 -- Virtual --
  0.1081   0.1443   0.1481   0.1753   0.1883   0.1976   0.2113   0.2164
  0.2213   0.2388   0.2477   0.2575   0.2973   0.3220   0.3403   0.3555
  0.3865   0.3892   0.4071   0.4184   0.4382   0.4603   0.4699   0.4886
  0.5005   0.5103   0.5232   0.5315   0.5333   0.5562   0.5767   0.5899
  0.6002   0.6075   0.6135   0.6258   0.6319   0.6383   0.6426   0.6487
  0.6595   0.6736   0.6854   0.7005   0.7183   0.7479   0.7678   0.7904
  0.8061   0.8352   0.8413   0.8576   0.8740   0.8907   0.8990   0.9207
  0.9527   0.9785   1.0006   1.0165   1.0322   1.0595   1.0677   1.0777
  1.0927   1.0942   1.1015   1.1170   1.1339   1.1688   1.1819   1.2036
  1.2304   1.2405   1.2578   1.2682   1.2816   1.2875   1.3139   1.3480
  1.3576   1.3753   1.3961   1.4173   1.4268   1.4370   1.4607   1.4826
  1.5052   1.5085   1.5212   1.5361   1.5412   1.5647   1.5698   1.5821
  1.6122   1.6269   1.6458   1.6704   1.6946   1.6983   1.7264   1.7491
  1.7696   1.7818   1.8090   1.8342   1.8765   1.9157   1.9329   1.9580
  2.0173   2.0592   2.0972   2.1237   2.1796   2.1985   2.2226   2.2567
  2.2667   2.2927   2.3529   2.4235   2.4511   2.4853   2.5090   2.5363
  2.5621   2.6087   2.6359   2.6557   2.6697   2.6901   2.7144   2.7309
  2.7582   2.7695   2.7729   2.7957   2.8140   2.8416   2.8556   2.8661
  2.9161   2.9234   2.9664   2.9714   3.0134   3.0390   3.0577   3.0699
  3.0860   3.1104   3.1163   3.1289   3.1550   3.1556   3.1793   3.1901
  3.2144   3.2362   3.2679   3.2803   3.2937   3.3100   3.3226   3.3256
  3.3440   3.3608   3.3808   3.3866   3.3956   3.4146   3.4266   3.4351
  3.4642   3.4672   3.4814   3.4968   3.5078   3.5096   3.5260   3.5424
  3.5730   3.6009   3.6043   3.6217   3.6321   3.6467   3.6604   3.6797
  3.6943   3.6994   3.7179   3.7495   3.7610   3.7821   3.7914   3.8062
  3.8274   3.8485   3.8510   3.8833   3.8962   3.9345   3.9445   3.9468
  3.9755   3.9933   4.0186   4.0295   4.0346   4.0509   4.1011   4.1186
  4.1312   4.1512   4.1705   4.2125   4.2196   4.2360   4.2443   4.2552
  4.2903   4.3033   4.3185   4.3396   4.3558   4.3583   4.3898   4.4026
  4.4142   4.4257   4.4447   4.4569   4.4644   4.4992   4.5399   4.5603
  4.5994   4.6218   4.6368   4.6728   4.7134   4.7361   4.7562   4.7691
  4.8213   4.8247   4.8584   4.8910   4.9184   4.9739   5.0798   5.0984
  5.1284   5.1305   5.1697   5.1914   5.2146   5.2661   5.2907   5.3256
  5.3681   5.4041   5.4166   5.4316   5.4702   5.5103   5.5497   5.5651
  5.5880   5.6189   5.6224   5.6769   5.6991   5.8151   5.8191   5.8517
  5.9510   5.9854   6.1364   6.1867   6.2282   6.2484   6.3102   6.4219
  6.4300   6.5214   9.1986  11.3407  12.9348  13.8542  14.1793  14.4411
 --------------------------------------------------------------
 
          Ground-State Mulliken Net Atomic Charges

     Atom                 Charge (a.u.)
  ----------------------------------------
      1 C                     0.033443
      2 C                    -0.273231
      3 C                     0.038856
      4 H                     0.180827
      5 C                    -0.267150
      6 S                    -0.007428
      7 C                    -0.273074
      8 H                     0.101268
      9 H                     0.107061
     10 H                     0.107058
     11 C                    -0.372718
     12 H                     0.133360
     13 H                     0.160229
     14 H                     0.137750
     15 H                     0.193750
  ----------------------------------------
  Sum of atomic charges =     0.000000

 -----------------------------------------------------------------
                    Cartesian Multipole Moments
 -----------------------------------------------------------------
    Charge (ESU x 10^10)
                -0.0000
    Dipole Moment (Debye)
         X      -0.3536      Y      -0.5255      Z       1.2096
       Tot       1.3654
    Quadrupole Moments (Debye-Ang)
        XX     -53.5867     XY       3.6137     YY     -42.4516
        XZ      -0.1210     YZ       0.8972     ZZ     -48.5625
    Octopole Moments (Debye-Ang^2)
       XXX     -27.5628    XXY     -28.9149    XYY      -6.8205
       YYY     -79.8677    XXZ      -1.9511    XYZ       0.0480
       YYZ      -5.9525    XZZ      -7.7365    YZZ     -24.8790
       ZZZ       1.3506
    Hexadecapole Moments (Debye-Ang^3)
      XXXX    -118.7248   XXXY     -84.6538   XXYY    -158.6585
      XYYY     -66.2128   YYYY    -774.7193   XXXZ     -23.1926
      XXYZ     -30.6311   XYYZ     -13.1790   YYYZ     -95.2576
      XXZZ    -107.3045   XYZZ     -22.5545   YYZZ    -205.1610
      XZZZ     -26.8694   YZZZ     -98.8255   ZZZZ    -484.0796
 -----------------------------------------------------------------
 Total job time:  156.97s(wall), 154.50s(cpu) 
 Sun Jul 10 09:01:31 2022

        *************************************************************
        *                                                           *
        *  Thank you very much for using Q-Chem.  Have a nice day.  *
        *                                                           *
        *************************************************************


remove work dirs ./qchem3409239.0 -- ./qchem3409239.-1
rm -rf ./qchem3409239
