You are running Q-Chem version: 5.4.0

#
# job setting
#
local host:  exp-2-07
current dir: /expanse/lustre/scratch/theleonzhang/temp_project/Hydrogenated_Impropers_Test
input file:  Methylthiophene_Phi_30_Theta_210_Methylthiophene_Hydrogenated_Improper.qcin
output file: 
nprocs     : 0
nthreads   : 1
#
# qchem installation setting
#
QC:          /cm/shared/apps/spack/cpu/opt/spack/linux-centos8-zen2/gcc-10.2.0/qchem-5.4-akfmr7b3t57bfs6qan3padb2wnb2i7cl
QCAUX:       /cm/shared/apps/spack/cpu/opt/spack/linux-centos8-zen2/gcc-10.2.0/qchem-5.4-akfmr7b3t57bfs6qan3padb2wnb2i7cl/qcaux
QCPROG:      /cm/shared/apps/spack/cpu/opt/spack/linux-centos8-zen2/gcc-10.2.0/qchem-5.4-akfmr7b3t57bfs6qan3padb2wnb2i7cl/exe/qcprog.exe_s
QCPROG_S:    /cm/shared/apps/spack/cpu/opt/spack/linux-centos8-zen2/gcc-10.2.0/qchem-5.4-akfmr7b3t57bfs6qan3padb2wnb2i7cl/exe/qcprog.exe_s
PARALLEL:    -DSERIAL
QCMPI:       mpich
#
# qchem directory setting
#
qcrun:       qchem973953
QCSCRATCH:   .
QCLOCALSCR:  
QCTMPDIR:    .
QCFILEPREF:  ./qchem973953
QCSAVEDIR:   
workdirs:    ./qchem973953
workdir0:    ./qchem973953
partmpdirs =  
#
# parallel setting
#
QCRSH:           ssh
QCMPI:           mpich
QCMPIRUN:        /cm/shared/apps/spack/cpu/opt/spack/linux-centos8-zen2/gcc-10.2.0/qchem-5.4-akfmr7b3t57bfs6qan3padb2wnb2i7cl/bin/mpi/mpirun_qchem
QCMACHINEFILE:   ./qchem973953/hostfile

#
# env setting
#
exported envs:   QC QCAUX QCSCRATCH QCRUNNAME QCFILEPREF QCPROG QCPROG_S GUIFILE

Running Job 1 of 1 Methylthiophene_Phi_30_Theta_210_Methylthiophene_Hydrogenated_Improper.qcin
qchem Methylthiophene_Phi_30_Theta_210_Methylthiophene_Hydrogenated_Improper.qcin_973953.0 ./qchem973953/ 0
/cm/shared/apps/spack/cpu/opt/spack/linux-centos8-zen2/gcc-10.2.0/qchem-5.4-akfmr7b3t57bfs6qan3padb2wnb2i7cl/exe/qcprog.exe_s Methylthiophene_Phi_30_Theta_210_Methylthiophene_Hydrogenated_Improper.qcin_973953.0 ./qchem973953/
                  Welcome to Q-Chem
     A Quantum Leap Into The Future Of Chemistry


 Q-Chem 5.4, Q-Chem, Inc., Pleasanton, CA (2021)

 License issued to: University of California, San Diego (site)

 E. Epifanovsky,  A. T. B. Gilbert,  Xintian Feng,  Joonho Lee,  Yuezhi Mao,  
 N. Mardirossian,  P. Pokhilko,  A. White,  M. Wormit,  M. P. Coons,  
 A. L. Dempwolff,  Zhengting Gan,  D. Hait,  P. R. Horn,  L. D. Jacobson,  
 I. Kaliman,  J. Kussmann,  A. W. Lange,  Ka Un Lao,  D. S. Levine,  Jie Liu,  
 S. C. McKenzie,  A. F. Morrison,  K. Nanda,  F. Plasser,  D. R. Rehn,  
 M. L. Vidal,  Zhi-Qiang You,  Ying Zhu,  B. Alam,  B. Albrecht,  
 A. Aldossary,  E. Alguire,  J. H. Andersen,  D. Barton,  K. Begam,  A. Behn,  
 Y. A. Bernard,  E. J. Berquist,  H. Burton,  A. Carreras,  K. Carter-Fenk,  
 R. Chakraborty,  A. D. Chien,  K. D. Closser,  V. Cofer-Shabica,  
 S. Dasgupta,  Jia Deng,  M. de Wergifosse,  M. Diedenhofen,  Hainam Do,  
 S. Ehlert,  Po-Tung Fang,  S. Fatehi,  Qingguo Feng,  J. Gayvert,  
 Qinghui Ge,  G. Gidofalvi,  M. Goldey,  J. Gomes,  C. Gonzalez-Espinoza,  
 S. Gulania,  A. Gunina,  M. W. D. Hanson-Heine,  P. H. P. Harbach,  
 A. W. Hauser,  M. F. Herbst,  M. Hernandez Vera,  M. Hodecker,  
 Z. C. Holden,  S. Houck,  Xunkun Huang,  Kerwin Hui,  B. C. Huynh,  
 M. Ivanov,  Hyunjun Ji,  Hanjie Jiang,  B. Kaduk,  S. Kaehler,  
 K. Khistyaev,  Jaehoon Kim,  P. Klunzinger,  Z. Koczor-Benda,  
 Joong Hoon Koh,  D. Kosenkov,  L. Koulias,  T. Kowalczyk,  C. M. Krauter,  
 K. Kue,  A. Kunitsa,  T. Kus,  A. Landau,  K. V. Lawler,  D. Lefrancois,  
 S. Lehtola,  Rain Li,  Yi-Pei Li,  Jiashu Liang,  M. Liebenthal,  
 Hung-Hsuan Lin,  You-Sheng Lin,  Fenglai Liu,  Kuan-Yu Liu,  
 M. Loipersberger,  A. Luenser,  A. Manjanath,  P. Manohar,  E. Mansoor,  
 S. F. Manzer,  Shan-Ping Mao,  A. V. Marenich,  T. Markovich,  S. Mason,  
 S. A. Maurer,  P. F. McLaughlin,  M. F. S. J. Menger,  J.-M. Mewes,  
 S. A. Mewes,  P. Morgante,  J. W. Mullinax,  T. S. Nguyen-Beck,  
 K. J. Oosterbaan,  G. Paran,  Alexander C. Paul,  Suranjan K. Paul,  
 F. Pavosevic,  Zheng Pei,  S. Prager,  E. I. Proynov,  E. Ramos,  B. Rana,  
 A. E. Rask,  A. Rettig,  R. M. Richard,  F. Rob,  E. Rossomme,  T. Scheele,  
 M. Scheurer,  M. Schneider,  N. Sergueev,  S. M. Sharada,  W. Skomorowski,  
 D. W. Small,  C. J. Stein,  Yu-Chuan Su,  E. J. Sundstrom,  Zhen Tao,  
 J. Thirman,  T. Tsuchimochi,  N. M. Tubman,  S. P. Veccham,  O. Vydrov,  
 J. Wenzel,  J. Witte,  A. Yamada,  Kun Yao,  S. Yeganeh,  S. R. Yost,  
 A. Zech,  Igor Ying Zhang,  Xing Zhang,  Yu Zhang,  D. Zuev,  
 A. Aspuru-Guzik,  A. T. Bell,  N. A. Besley,  K. B. Bravaya,  B. R. Brooks,  
 D. Casanova,  Jeng-Da Chai,  S. Coriani,  C. J. Cramer,  
 A. E. DePrince, III,  R. A. DiStasio Jr.,  A. Dreuw,  B. D. Dunietz,  
 T. R. Furlani,  W. A. Goddard III,  S. Grimme,  S. Hammes-Schiffer,  
 T. Head-Gordon,  W. J. Hehre,  Chao-Ping Hsu,  T.-C. Jagau,  Yousung Jung,  
 A. Klamt,  Jing Kong,  D. S. Lambrecht,  WanZhen Liang,  N. J. Mayhall,  
 C. W. McCurdy,  J. B. Neaton,  C. Ochsenfeld,  J. A. Parkhill,  R. Peverati,  
 V. A. Rassolov,  Yihan Shao,  L. V. Slipchenko,  T. Stauch,  R. P. Steele,  
 J. E. Subotnik,  A. J. W. Thom,  A. Tkatchenko,  D. G. Truhlar,  
 T. Van Voorhis,  T. A. Wesolowski,  K. B. Whaley,  H. L. Woodcock III,  
 P. M. Zimmerman,  S. Faraji,  P. M. W. Gill,  M. Head-Gordon,  
 J. M. Herbert,  A. I. Krylov

 Contributors to earlier versions of Q-Chem not listed above: 
 R. D. Adamson,  B. Austin,  R. Baer,  J. Baker,  G. J. O. Beran,  
 K. Brandhorst,  S. T. Brown,  E. F. C. Byrd,  A. K. Chakraborty,  
 G. K. L. Chan,  Chun-Min Chang,  Yunqing Chen,  C.-L. Cheng,  
 Siu Hung Chien,  D. M. Chipman,  D. L. Crittenden,  H. Dachsel,  
 R. J. Doerksen,  A. D. Dutoi,  R. G. Edgar,  J. Fosso-Tande,  
 L. Fusti-Molnar,  D. Ghosh,  A. Ghysels,  A. Golubeva-Zadorozhnaya,  
 J. Gonthier,  M. S. Gordon,  S. R. Gwaltney,  G. Hawkins,  J. E. Herr,  
 A. Heyden,  S. Hirata,  E. G. Hohenstein,  G. Kedziora,  F. J. Keil,  
 C. Kelley,  Jihan Kim,  R. A. King,  R. Z. Khaliullin,  P. P. Korambath,  
 W. Kurlancheek,  A. Laurent,  A. M. Lee,  M. S. Lee,  S. V. Levchenko,  
 Ching Yeh Lin,  D. Liotard,  E. Livshits,  R. C. Lochan,  I. Lotan,  
 L. A. Martinez-Martinez,  P. E. Maslen,  N. Nair,  D. P. O'Neill,  
 D. Neuhauser,  E. Neuscamman,  C. M. Oana,  R. Olivares-Amaya,  R. Olson,  
 T. M. Perrine,  B. Peters,  P. A. Pieniazek,  A. Prociuk,  Y. M. Rhee,  
 J. Ritchie,  M. A. Rohrdanz,  E. Rosta,  N. J. Russ,  H. F. Schaefer III,  
 M. W. Schmidt,  N. E. Schultz,  S. Sharma,  N. Shenvi,  C. D. Sherrill,  
 A. C. Simmonett,  A. Sodt,  T. Stein,  D. Stuck,  K. S. Thanthiriwatte,  
 V. Vanovschi,  L. Vogt,  Tao Wang,  A. Warshel,  M. A. Watson,  
 C. F. Williams,  Q. Wu,  X. Xu,  Jun Yang,  W. Zhang,  Yan Zhao

 Please cite Q-Chem as follows:
 Y. Shao et al., Mol. Phys. 113, 184-215 (2015)
 DOI: 10.1080/00268976.2014.952696

 Q-Chem 5.4.0 for Intel X86 EM64T Linux

 Parts of Q-Chem use Armadillo 9.800.1 (Horizon Scraper).
 http://arma.sourceforge.net/

 Q-Chem begins on Sun Jul 10 09:19:51 2022  

 Host: 
0

     Scratch files written to ./qchem973953//
 May1621 |scratch|qcdevops|jenkins|workspace|build_RNUM    
 Processing $rem in /cm/shared/apps/spack/cpu/opt/spack/linux-centos8-zen2/gcc-10.2.0/qchem-5.4-akfmr7b3t57bfs6qan3padb2wnb2i7cl/config/preferences:
 Processing $rem in /home/theleonzhang/.qchemrc:
 Symmetry turned off for PCM/SM12/SMD calculation
 Core orbitals will be frozen

 Checking the input file for inconsistencies... 	...done.

--------------------------------------------------------------
User input:
--------------------------------------------------------------
$molecule
0 1
C	-0.335263	-0.485419	0.017956
C	0.096537	0.262481	1.117356
C	0.788537	1.460981	0.794656
H	-0.087863	-0.056919	2.154056
C	0.898837	1.652081	-0.594544
S	0.135937	0.330681	-1.468844
C	1.332437	2.402981	1.832556
H	1.119637	2.034381	2.854656
H	0.886737	3.415781	1.744156
H	2.432437	2.523381	1.744156
C	-0.335263	-1.926119	0.017956
H	-1.270463	-1.926319	-0.522144
H	-0.744863	-2.629919	0.727356
H	0.138337	-2.445019	-0.802244
H	1.373537	2.474081	-1.143644
$end

$rem
JOBTYPE		SP
EXCHANGE	HF
CORRELATION	pRIMP2
BASIS		cc-pvtz
METHOD		rimp2
AUX_BASIS	rimp2-cc-pvtz
SOLVENT_METHOD	PCM
PURECART	11111
SYMMETRY	false
MEM_TOTAL	110000
SCF_CONVERGENCE = 6
THRESH=10
$end



$solvent
dielectric 4.90
$end
--------------------------------------------------------------
 ----------------------------------------------------------------
             Standard Nuclear Orientation (Angstroms)
    I     Atom           X                Y                Z
 ----------------------------------------------------------------
    1      C      -0.3352630000    -0.4854190000     0.0179560000
    2      C       0.0965370000     0.2624810000     1.1173560000
    3      C       0.7885370000     1.4609810000     0.7946560000
    4      H      -0.0878630000    -0.0569190000     2.1540560000
    5      C       0.8988370000     1.6520810000    -0.5945440000
    6      S       0.1359370000     0.3306810000    -1.4688440000
    7      C       1.3324370000     2.4029810000     1.8325560000
    8      H       1.1196370000     2.0343810000     2.8546560000
    9      H       0.8867370000     3.4157810000     1.7441560000
   10      H       2.4324370000     2.5233810000     1.7441560000
   11      C      -0.3352630000    -1.9261190000     0.0179560000
   12      H      -1.2704630000    -1.9263190000    -0.5221440000
   13      H      -0.7448630000    -2.6299190000     0.7273560000
   14      H       0.1383370000    -2.4450190000    -0.8022440000
   15      H       1.3735370000     2.4740810000    -1.1436440000
 ----------------------------------------------------------------
 Nuclear Repulsion Energy =         345.80868876 hartrees
 There are       30 alpha and       30 beta electrons

 Q-Chem warning in module forms1/BasisType.C, line 2236:

 You are not using the predefined 5D/6D in this basis set.

 Requested basis set is cc-pVTZ
 There are 120 shells and 326 basis functions

 Total QAlloc Memory Limit 110000 MB
 Mega-Array Size       188 MB
 MEM_STATIC part       192 MB
 Discretize the solute cavity surface with Lebedev spheres
	Using 110 Lebedev grid points for each H atom
	Using 194 Lebedev grid points for other atoms
	Atomic van der Waals radii will be scaled by 1.20
 Remove points where switching function is < 1.0e-08
 Keep 1055 surface tesserae and discard 1183 interior tesserae
 Molecular Surface Area = 158.141 Angst**2

                       Distance Matrix (Angstroms)
             C (  1)   C (  2)   C (  3)   H (  4)   C (  5)   S (  6)
   C (  2)  1.398029
   C (  3)  2.377953  1.421056
   H (  4)  2.192656  1.100348  2.218122
   C (  5)  2.543043  2.346332  1.406614  3.383646
   S (  6)  1.760291  2.587399  2.612833  3.650442  1.758555
   C (  7)  3.796953  2.573072  1.503472  2.858622  2.577339  4.077411
   H (  8)  4.063618  2.684134  2.163796  2.514445  3.477339  4.750043
   H (  9)  4.437613  3.310679  2.175416  3.630084  2.929215  4.517180
   H ( 10)  4.437658  3.310736  2.175466  3.630135  2.929268  4.517213
   C ( 11)  1.440700  2.486986  3.652210  2.849217  3.834276  2.743310
   H ( 12)  1.800694  3.057367  4.176990  3.472066  4.185218  2.822809
   H ( 13)  2.295626  3.037438  4.369360  3.014540  4.773331  3.790021
   H ( 14)  2.176478  3.319212  4.269624  3.807085  4.172257  2.854623
   H ( 15)  3.609425  3.410869  2.263980  4.406413  1.096602  2.496312
             C (  7)   H (  8)   H (  9)   H ( 10)   C ( 11)   H ( 12)
   H (  8)  1.107176
   H (  9)  1.110057  1.787657
   H ( 10)  1.110095  1.787673  1.784815
   C ( 11)  4.981476  5.084207  5.745341  5.517063
   H ( 12)  5.573378  5.727347  6.190934  6.216704  1.079957
   H ( 13)  5.555783  5.455040  6.344012  6.138861  1.079979  1.527272
   H ( 14)  5.645454  5.865227  6.433757  6.035896  1.079945  1.527162
   H ( 15)  2.977333  4.030410  3.076225  3.076213  4.861180  5.171124
             H ( 13)   H ( 14)
   H ( 14)  1.775924
   H ( 15)  5.834302  5.083288
 
 Requested basis set is rimp2-cc-pVTZ
 There are 250 shells and 848 basis functions
 A cutoff of  1.0D-10 yielded   6189 shell pairs
 There are     45375 function pairs (     58355 Cartesian)
 Smallest overlap matrix eigenvalue = 1.11E-04

 Scale SEOQF with 1.000000e-01/1.000000e-01/1.000000e-01

 Standard Electronic Orientation quadrupole field applied
 Nucleus-field energy     =     0.0000000012 hartrees
 Guess from superposition of atomic densities
 Warning:  Energy on first SCF cycle will be non-variational
 SAD guess density has 60.000000 electrons

 -----------------------------------------------------------------------
  General SCF calculation program by
  Eric Jon Sundstrom, Paul Horn, Yuezhi Mao, Dmitri Zuev, Alec White,
  David Stuck, Shaama M.S., Shane Yost, Joonho Lee, David Small,
  Daniel Levine, Susi Lehtola, Hugh Burton, Evgeny Epifanovsky,
  Bang C. Huynh
 -----------------------------------------------------------------------
 Hartree-Fock
 A restricted SCF calculation will be
 performed using DIIS
 SCF converges when DIIS error is below 1.0e-06
 ---------------------------------------
  Cycle       Energy         DIIS error
 ---------------------------------------
    1    -632.1146988117      2.92e-02  
    2    -629.3196256018      1.94e-03  
    3    -629.3901352401      6.91e-04  
    4    -629.3978140740      3.46e-04  
    5    -629.3999698026      6.55e-05  
    6    -629.4001110453      2.66e-05  
    7    -629.4001471318      1.21e-05  
    8    -629.4001571916      5.21e-06  
    9    -629.4001588583      1.88e-06  
   10    -629.4001590679      5.33e-07  Convergence criterion met
 ---------------------------------------
 SCF time:   CPU 143.61s  wall 144.00s 

************** Final PCM Free Energy Summary **************
 G_electrostatic  =      -0.00523351 hartree =      -3.28407683 kcal/mol
 G_cavitation     =       0.00000000 hartree =       0.00000000 kcal/mol
 G_dispersion     =       0.00000000 hartree =       0.00000000 kcal/mol
 G_repulsion      =       0.00000000 hartree =       0.00000000 kcal/mol
 --------------------------------------------------
 Non-electrostatic Free Energy =       0.00000000 hartree =       0.00000000 kcal/mol
 Total                         =      -0.00523351 hartree =      -3.28407683 kcal/mol
 --------------------------------------------------
 SCF Energy (H0 + V/2)                       =    -629.40015907 
 Solute Internal Energy (H0)                 =    -629.39492556 
 Total Free Energy (H0 + V/2 + non-elec)     =    -629.40015907 hartree
                                             = -394954.56086398 kcal/mol
***********************************************************

 SCF   energy in the final basis set =     -629.4001590679
 Total energy in the final basis set =     -629.4001590679


 --------------------------------------------------------------
  Generalized many-body perturbation theory program
  by Joonho Lee, Fazle Rob, Xintian Feng, Evgeny Epifanovsky

 No regularization used 
 (reg. param. = 0.0000e+00)
  (P|Q)^-1/2 Time:  CPU 0.48 s  wall 0.48 s

 In RI-MP2 calculation: 
 # of frozen core orbitals: 11

 Components of the RIMP2 correlation energy:
        aaaa    correlation energy =        -0.1460019567 a.u.
        abab    correlation energy =        -0.8890474813 a.u.
        bbbb    correlation energy =        -0.1460019567 a.u.
        non-Brillouin singles      =        -0.0000000000 a.u.
        total same-spin energy     =        -0.2920039135 a.u.
        total opposite-spin energy =        -0.8890474813 a.u.

 Total  RIMP2   correlation energy =        -1.1810513948 a.u.
        RIMP2         total energy =      -630.5812104627 a.u.

 RI-MP2 Energy Time:  CPU 11.05 s  wall 11.08 s
 
 --------------------------------------------------------------
 
                    Orbital Energies (a.u.)
 --------------------------------------------------------------
 
 Alpha MOs
 -- Occupied --
-91.9782 -11.2728 -11.2583 -11.2471 -11.2295 -11.2267 -11.2147  -8.9783
 -6.6592  -6.6587  -6.6581  -1.1621  -1.0547  -0.9954  -0.9439  -0.8818
 -0.7464  -0.7200  -0.6459  -0.5881  -0.5738  -0.5685  -0.5525  -0.5457
 -0.5113  -0.4876  -0.4589  -0.4514  -0.3379  -0.2905
 -- Virtual --
  0.0950   0.1440   0.1501   0.1759   0.1874   0.1938   0.2059   0.2225
  0.2258   0.2376   0.2498   0.2531   0.2952   0.3186   0.3385   0.3546
  0.3801   0.3928   0.4013   0.4212   0.4452   0.4593   0.4705   0.4786
  0.4925   0.5084   0.5145   0.5274   0.5352   0.5708   0.5726   0.5880
  0.5963   0.6072   0.6096   0.6238   0.6280   0.6373   0.6392   0.6481
  0.6581   0.6678   0.6823   0.7007   0.7301   0.7457   0.7564   0.7788
  0.8077   0.8355   0.8420   0.8476   0.8584   0.8828   0.9047   0.9199
  0.9529   0.9735   0.9968   1.0177   1.0343   1.0575   1.0703   1.0774
  1.0880   1.1052   1.1079   1.1205   1.1587   1.1718   1.1919   1.2096
  1.2357   1.2520   1.2555   1.2570   1.2715   1.2889   1.3146   1.3357
  1.3564   1.3763   1.3982   1.4042   1.4144   1.4398   1.4602   1.4758
  1.4918   1.4998   1.5202   1.5372   1.5466   1.5509   1.5689   1.5797
  1.6109   1.6248   1.6551   1.6687   1.6861   1.6935   1.7114   1.7490
  1.7741   1.7784   1.8102   1.8243   1.8728   1.9060   1.9401   1.9584
  2.0125   2.0380   2.1057   2.1332   2.1742   2.1871   2.2155   2.2513
  2.2601   2.2762   2.3227   2.4103   2.4434   2.4590   2.5388   2.5478
  2.5616   2.6007   2.6417   2.6582   2.6727   2.7082   2.7130   2.7351
  2.7523   2.7561   2.7860   2.7948   2.8139   2.8344   2.8614   2.8751
  2.9010   2.9382   2.9717   3.0019   3.0234   3.0308   3.0453   3.0627
  3.0811   3.1129   3.1196   3.1510   3.1565   3.1798   3.1856   3.1887
  3.1961   3.2447   3.2637   3.2729   3.2897   3.2993   3.3163   3.3277
  3.3336   3.3558   3.3780   3.3830   3.3973   3.4094   3.4296   3.4327
  3.4442   3.4493   3.4865   3.4894   3.5084   3.5218   3.5416   3.5578
  3.5762   3.6013   3.6082   3.6122   3.6341   3.6586   3.6802   3.6908
  3.7004   3.7140   3.7280   3.7440   3.7665   3.7783   3.7931   3.8082
  3.8248   3.8381   3.8625   3.8765   3.8929   3.9361   3.9484   3.9634
  3.9849   4.0067   4.0113   4.0210   4.0452   4.0747   4.0953   4.1160
  4.1258   4.1519   4.1800   4.2006   4.2065   4.2193   4.2528   4.2608
  4.2855   4.3058   4.3099   4.3290   4.3435   4.3716   4.3828   4.4021
  4.4209   4.4298   4.4425   4.4526   4.4614   4.4973   4.5297   4.5630
  4.6068   4.6319   4.6396   4.6646   4.7148   4.7372   4.7383   4.7859
  4.8190   4.8309   4.8403   4.8921   4.9144   4.9400   5.0640   5.0946
  5.1103   5.1655   5.1745   5.1922   5.2101   5.2630   5.2905   5.3211
  5.3669   5.4042   5.4199   5.4472   5.4570   5.5173   5.5472   5.5656
  5.5814   5.6251   5.6344   5.6906   5.7242   5.8165   5.8215   5.8691
  5.9376   6.0233   6.0349   6.1373   6.2282   6.2394   6.2968   6.3721
  6.4395   6.4548   9.1813  11.4543  12.9030  13.8480  14.1906  14.2644
 --------------------------------------------------------------
 
          Ground-State Mulliken Net Atomic Charges

     Atom                 Charge (a.u.)
  ----------------------------------------
      1 C                    -0.003779
      2 C                    -0.242990
      3 C                     0.036331
      4 H                     0.180312
      5 C                    -0.251077
      6 S                    -0.002172
      7 C                    -0.271805
      8 H                     0.101428
      9 H                     0.107045
     10 H                     0.106091
     11 C                    -0.377651
     12 H                     0.126762
     13 H                     0.156076
     14 H                     0.140634
     15 H                     0.194793
  ----------------------------------------
  Sum of atomic charges =     0.000000

 -----------------------------------------------------------------
                    Cartesian Multipole Moments
 -----------------------------------------------------------------
    Charge (ESU x 10^10)
                -0.0000
    Dipole Moment (Debye)
         X       0.2205      Y      -0.2174      Z       1.1738
       Tot       1.2139
    Quadrupole Moments (Debye-Ang)
        XX     -51.8578     XY       5.1399     YY     -44.4991
        XZ      -0.1980     YZ       0.6353     ZZ     -48.4385
    Octopole Moments (Debye-Ang^2)
       XXX     -51.7059    XXY     -22.1063    XYY     -12.7522
       YYY     -71.1364    XXZ      -2.2817    XYZ      -0.3838
       YYZ      -4.6320    XZZ     -14.9624    YZZ     -21.2057
       ZZZ       1.9289
    Hexadecapole Moments (Debye-Ang^3)
      XXXX    -223.8897   XXXY    -140.4530   XXYY    -148.0167
      XYYY    -120.6003   YYYY    -677.3700   XXXZ     -47.2587
      XXYZ     -30.8476   XYYZ     -23.9996   YYYZ     -90.4404
      XXZZ    -121.1151   XYZZ     -39.4875   YYZZ    -190.7166
      XZZZ     -51.9714   YZZZ     -89.4142   ZZZZ    -483.0133
 -----------------------------------------------------------------
 Total job time:  156.85s(wall), 155.00s(cpu) 
 Sun Jul 10 09:22:28 2022

        *************************************************************
        *                                                           *
        *  Thank you very much for using Q-Chem.  Have a nice day.  *
        *                                                           *
        *************************************************************


remove work dirs ./qchem973953.0 -- ./qchem973953.-1
rm -rf ./qchem973953
You are running Q-Chem version: 5.4.0

#
# job setting
#
local host:  exp-4-11
current dir: /expanse/lustre/scratch/theleonzhang/temp_project/Hydrogenated_Impropers_Test
input file:  Methylthiophene_Phi_30_Theta_210_Methylthiophene_Hydrogenated_Improper.qcin
output file: 
nprocs     : 0
nthreads   : 1
#
# qchem installation setting
#
QC:          /cm/shared/apps/spack/cpu/opt/spack/linux-centos8-zen2/gcc-10.2.0/qchem-5.4-akfmr7b3t57bfs6qan3padb2wnb2i7cl
QCAUX:       /cm/shared/apps/spack/cpu/opt/spack/linux-centos8-zen2/gcc-10.2.0/qchem-5.4-akfmr7b3t57bfs6qan3padb2wnb2i7cl/qcaux
QCPROG:      /cm/shared/apps/spack/cpu/opt/spack/linux-centos8-zen2/gcc-10.2.0/qchem-5.4-akfmr7b3t57bfs6qan3padb2wnb2i7cl/exe/qcprog.exe_s
QCPROG_S:    /cm/shared/apps/spack/cpu/opt/spack/linux-centos8-zen2/gcc-10.2.0/qchem-5.4-akfmr7b3t57bfs6qan3padb2wnb2i7cl/exe/qcprog.exe_s
PARALLEL:    -DSERIAL
QCMPI:       mpich
#
# qchem directory setting
#
qcrun:       qchem3442593
QCSCRATCH:   .
QCLOCALSCR:  
QCTMPDIR:    .
QCFILEPREF:  ./qchem3442593
QCSAVEDIR:   
workdirs:    ./qchem3442593
workdir0:    ./qchem3442593
partmpdirs =  
#
# parallel setting
#
QCRSH:           ssh
QCMPI:           mpich
QCMPIRUN:        /cm/shared/apps/spack/cpu/opt/spack/linux-centos8-zen2/gcc-10.2.0/qchem-5.4-akfmr7b3t57bfs6qan3padb2wnb2i7cl/bin/mpi/mpirun_qchem
QCMACHINEFILE:   ./qchem3442593/hostfile

#
# env setting
#
exported envs:   QC QCAUX QCSCRATCH QCRUNNAME QCFILEPREF QCPROG QCPROG_S GUIFILE

Running Job 1 of 1 Methylthiophene_Phi_30_Theta_210_Methylthiophene_Hydrogenated_Improper.qcin
qchem Methylthiophene_Phi_30_Theta_210_Methylthiophene_Hydrogenated_Improper.qcin_3442593.0 ./qchem3442593/ 0
/cm/shared/apps/spack/cpu/opt/spack/linux-centos8-zen2/gcc-10.2.0/qchem-5.4-akfmr7b3t57bfs6qan3padb2wnb2i7cl/exe/qcprog.exe_s Methylthiophene_Phi_30_Theta_210_Methylthiophene_Hydrogenated_Improper.qcin_3442593.0 ./qchem3442593/
                  Welcome to Q-Chem
     A Quantum Leap Into The Future Of Chemistry


 Q-Chem 5.4, Q-Chem, Inc., Pleasanton, CA (2021)

 License issued to: University of California, San Diego (site)

 E. Epifanovsky,  A. T. B. Gilbert,  Xintian Feng,  Joonho Lee,  Yuezhi Mao,  
 N. Mardirossian,  P. Pokhilko,  A. White,  M. Wormit,  M. P. Coons,  
 A. L. Dempwolff,  Zhengting Gan,  D. Hait,  P. R. Horn,  L. D. Jacobson,  
 I. Kaliman,  J. Kussmann,  A. W. Lange,  Ka Un Lao,  D. S. Levine,  Jie Liu,  
 S. C. McKenzie,  A. F. Morrison,  K. Nanda,  F. Plasser,  D. R. Rehn,  
 M. L. Vidal,  Zhi-Qiang You,  Ying Zhu,  B. Alam,  B. Albrecht,  
 A. Aldossary,  E. Alguire,  J. H. Andersen,  D. Barton,  K. Begam,  A. Behn,  
 Y. A. Bernard,  E. J. Berquist,  H. Burton,  A. Carreras,  K. Carter-Fenk,  
 R. Chakraborty,  A. D. Chien,  K. D. Closser,  V. Cofer-Shabica,  
 S. Dasgupta,  Jia Deng,  M. de Wergifosse,  M. Diedenhofen,  Hainam Do,  
 S. Ehlert,  Po-Tung Fang,  S. Fatehi,  Qingguo Feng,  J. Gayvert,  
 Qinghui Ge,  G. Gidofalvi,  M. Goldey,  J. Gomes,  C. Gonzalez-Espinoza,  
 S. Gulania,  A. Gunina,  M. W. D. Hanson-Heine,  P. H. P. Harbach,  
 A. W. Hauser,  M. F. Herbst,  M. Hernandez Vera,  M. Hodecker,  
 Z. C. Holden,  S. Houck,  Xunkun Huang,  Kerwin Hui,  B. C. Huynh,  
 M. Ivanov,  Hyunjun Ji,  Hanjie Jiang,  B. Kaduk,  S. Kaehler,  
 K. Khistyaev,  Jaehoon Kim,  P. Klunzinger,  Z. Koczor-Benda,  
 Joong Hoon Koh,  D. Kosenkov,  L. Koulias,  T. Kowalczyk,  C. M. Krauter,  
 K. Kue,  A. Kunitsa,  T. Kus,  A. Landau,  K. V. Lawler,  D. Lefrancois,  
 S. Lehtola,  Rain Li,  Yi-Pei Li,  Jiashu Liang,  M. Liebenthal,  
 Hung-Hsuan Lin,  You-Sheng Lin,  Fenglai Liu,  Kuan-Yu Liu,  
 M. Loipersberger,  A. Luenser,  A. Manjanath,  P. Manohar,  E. Mansoor,  
 S. F. Manzer,  Shan-Ping Mao,  A. V. Marenich,  T. Markovich,  S. Mason,  
 S. A. Maurer,  P. F. McLaughlin,  M. F. S. J. Menger,  J.-M. Mewes,  
 S. A. Mewes,  P. Morgante,  J. W. Mullinax,  T. S. Nguyen-Beck,  
 K. J. Oosterbaan,  G. Paran,  Alexander C. Paul,  Suranjan K. Paul,  
 F. Pavosevic,  Zheng Pei,  S. Prager,  E. I. Proynov,  E. Ramos,  B. Rana,  
 A. E. Rask,  A. Rettig,  R. M. Richard,  F. Rob,  E. Rossomme,  T. Scheele,  
 M. Scheurer,  M. Schneider,  N. Sergueev,  S. M. Sharada,  W. Skomorowski,  
 D. W. Small,  C. J. Stein,  Yu-Chuan Su,  E. J. Sundstrom,  Zhen Tao,  
 J. Thirman,  T. Tsuchimochi,  N. M. Tubman,  S. P. Veccham,  O. Vydrov,  
 J. Wenzel,  J. Witte,  A. Yamada,  Kun Yao,  S. Yeganeh,  S. R. Yost,  
 A. Zech,  Igor Ying Zhang,  Xing Zhang,  Yu Zhang,  D. Zuev,  
 A. Aspuru-Guzik,  A. T. Bell,  N. A. Besley,  K. B. Bravaya,  B. R. Brooks,  
 D. Casanova,  Jeng-Da Chai,  S. Coriani,  C. J. Cramer,  
 A. E. DePrince, III,  R. A. DiStasio Jr.,  A. Dreuw,  B. D. Dunietz,  
 T. R. Furlani,  W. A. Goddard III,  S. Grimme,  S. Hammes-Schiffer,  
 T. Head-Gordon,  W. J. Hehre,  Chao-Ping Hsu,  T.-C. Jagau,  Yousung Jung,  
 A. Klamt,  Jing Kong,  D. S. Lambrecht,  WanZhen Liang,  N. J. Mayhall,  
 C. W. McCurdy,  J. B. Neaton,  C. Ochsenfeld,  J. A. Parkhill,  R. Peverati,  
 V. A. Rassolov,  Yihan Shao,  L. V. Slipchenko,  T. Stauch,  R. P. Steele,  
 J. E. Subotnik,  A. J. W. Thom,  A. Tkatchenko,  D. G. Truhlar,  
 T. Van Voorhis,  T. A. Wesolowski,  K. B. Whaley,  H. L. Woodcock III,  
 P. M. Zimmerman,  S. Faraji,  P. M. W. Gill,  M. Head-Gordon,  
 J. M. Herbert,  A. I. Krylov

 Contributors to earlier versions of Q-Chem not listed above: 
 R. D. Adamson,  B. Austin,  R. Baer,  J. Baker,  G. J. O. Beran,  
 K. Brandhorst,  S. T. Brown,  E. F. C. Byrd,  A. K. Chakraborty,  
 G. K. L. Chan,  Chun-Min Chang,  Yunqing Chen,  C.-L. Cheng,  
 Siu Hung Chien,  D. M. Chipman,  D. L. Crittenden,  H. Dachsel,  
 R. J. Doerksen,  A. D. Dutoi,  R. G. Edgar,  J. Fosso-Tande,  
 L. Fusti-Molnar,  D. Ghosh,  A. Ghysels,  A. Golubeva-Zadorozhnaya,  
 J. Gonthier,  M. S. Gordon,  S. R. Gwaltney,  G. Hawkins,  J. E. Herr,  
 A. Heyden,  S. Hirata,  E. G. Hohenstein,  G. Kedziora,  F. J. Keil,  
 C. Kelley,  Jihan Kim,  R. A. King,  R. Z. Khaliullin,  P. P. Korambath,  
 W. Kurlancheek,  A. Laurent,  A. M. Lee,  M. S. Lee,  S. V. Levchenko,  
 Ching Yeh Lin,  D. Liotard,  E. Livshits,  R. C. Lochan,  I. Lotan,  
 L. A. Martinez-Martinez,  P. E. Maslen,  N. Nair,  D. P. O'Neill,  
 D. Neuhauser,  E. Neuscamman,  C. M. Oana,  R. Olivares-Amaya,  R. Olson,  
 T. M. Perrine,  B. Peters,  P. A. Pieniazek,  A. Prociuk,  Y. M. Rhee,  
 J. Ritchie,  M. A. Rohrdanz,  E. Rosta,  N. J. Russ,  H. F. Schaefer III,  
 M. W. Schmidt,  N. E. Schultz,  S. Sharma,  N. Shenvi,  C. D. Sherrill,  
 A. C. Simmonett,  A. Sodt,  T. Stein,  D. Stuck,  K. S. Thanthiriwatte,  
 V. Vanovschi,  L. Vogt,  Tao Wang,  A. Warshel,  M. A. Watson,  
 C. F. Williams,  Q. Wu,  X. Xu,  Jun Yang,  W. Zhang,  Yan Zhao

 Please cite Q-Chem as follows:
 Y. Shao et al., Mol. Phys. 113, 184-215 (2015)
 DOI: 10.1080/00268976.2014.952696

 Q-Chem 5.4.0 for Intel X86 EM64T Linux

 Parts of Q-Chem use Armadillo 9.800.1 (Horizon Scraper).
 http://arma.sourceforge.net/

 Q-Chem begins on Sun Jul 10 10:01:40 2022  

 Host: 
0

     Scratch files written to ./qchem3442593//
 May1621 |scratch|qcdevops|jenkins|workspace|build_RNUM    
 Processing $rem in /cm/shared/apps/spack/cpu/opt/spack/linux-centos8-zen2/gcc-10.2.0/qchem-5.4-akfmr7b3t57bfs6qan3padb2wnb2i7cl/config/preferences:
 Processing $rem in /home/theleonzhang/.qchemrc:
 Symmetry turned off for PCM/SM12/SMD calculation
 Core orbitals will be frozen

 Checking the input file for inconsistencies... 	...done.

--------------------------------------------------------------
User input:
--------------------------------------------------------------
$molecule
0 1
C	-0.335263	-0.485419	0.017956
C	0.096537	0.262481	1.117356
C	0.788537	1.460981	0.794656
H	-0.087863	-0.056919	2.154056
C	0.898837	1.652081	-0.594544
S	0.135937	0.330681	-1.468844
C	1.332437	2.402981	1.832556
H	1.119637	2.034381	2.854656
H	0.886737	3.415781	1.744156
H	2.432437	2.523381	1.744156
C	-0.335263	-1.926119	0.017956
H	-1.270463	-1.926319	-0.522144
H	-0.744863	-2.629919	0.727356
H	0.138337	-2.445019	-0.802244
H	1.373537	2.474081	-1.143644
$end

$rem
JOBTYPE		SP
EXCHANGE	HF
CORRELATION	pRIMP2
BASIS		cc-pvtz
METHOD		rimp2
AUX_BASIS	rimp2-cc-pvtz
SOLVENT_METHOD	PCM
PURECART	11111
SYMMETRY	false
MEM_TOTAL	110000
SCF_CONVERGENCE = 6
THRESH=10
$end



$solvent
dielectric 4.90
$end
--------------------------------------------------------------
 ----------------------------------------------------------------
             Standard Nuclear Orientation (Angstroms)
    I     Atom           X                Y                Z
 ----------------------------------------------------------------
    1      C      -0.3352630000    -0.4854190000     0.0179560000
    2      C       0.0965370000     0.2624810000     1.1173560000
    3      C       0.7885370000     1.4609810000     0.7946560000
    4      H      -0.0878630000    -0.0569190000     2.1540560000
    5      C       0.8988370000     1.6520810000    -0.5945440000
    6      S       0.1359370000     0.3306810000    -1.4688440000
    7      C       1.3324370000     2.4029810000     1.8325560000
    8      H       1.1196370000     2.0343810000     2.8546560000
    9      H       0.8867370000     3.4157810000     1.7441560000
   10      H       2.4324370000     2.5233810000     1.7441560000
   11      C      -0.3352630000    -1.9261190000     0.0179560000
   12      H      -1.2704630000    -1.9263190000    -0.5221440000
   13      H      -0.7448630000    -2.6299190000     0.7273560000
   14      H       0.1383370000    -2.4450190000    -0.8022440000
   15      H       1.3735370000     2.4740810000    -1.1436440000
 ----------------------------------------------------------------
 Nuclear Repulsion Energy =         345.80868876 hartrees
 There are       30 alpha and       30 beta electrons

 Q-Chem warning in module forms1/BasisType.C, line 2236:

 You are not using the predefined 5D/6D in this basis set.

 Requested basis set is cc-pVTZ
 There are 120 shells and 326 basis functions

 Total QAlloc Memory Limit 110000 MB
 Mega-Array Size       188 MB
 MEM_STATIC part       192 MB
 Discretize the solute cavity surface with Lebedev spheres
	Using 110 Lebedev grid points for each H atom
	Using 194 Lebedev grid points for other atoms
	Atomic van der Waals radii will be scaled by 1.20
 Remove points where switching function is < 1.0e-08
 Keep 1055 surface tesserae and discard 1183 interior tesserae
 Molecular Surface Area = 158.141 Angst**2

                       Distance Matrix (Angstroms)
             C (  1)   C (  2)   C (  3)   H (  4)   C (  5)   S (  6)
   C (  2)  1.398029
   C (  3)  2.377953  1.421056
   H (  4)  2.192656  1.100348  2.218122
   C (  5)  2.543043  2.346332  1.406614  3.383646
   S (  6)  1.760291  2.587399  2.612833  3.650442  1.758555
   C (  7)  3.796953  2.573072  1.503472  2.858622  2.577339  4.077411
   H (  8)  4.063618  2.684134  2.163796  2.514445  3.477339  4.750043
   H (  9)  4.437613  3.310679  2.175416  3.630084  2.929215  4.517180
   H ( 10)  4.437658  3.310736  2.175466  3.630135  2.929268  4.517213
   C ( 11)  1.440700  2.486986  3.652210  2.849217  3.834276  2.743310
   H ( 12)  1.800694  3.057367  4.176990  3.472066  4.185218  2.822809
   H ( 13)  2.295626  3.037438  4.369360  3.014540  4.773331  3.790021
   H ( 14)  2.176478  3.319212  4.269624  3.807085  4.172257  2.854623
   H ( 15)  3.609425  3.410869  2.263980  4.406413  1.096602  2.496312
             C (  7)   H (  8)   H (  9)   H ( 10)   C ( 11)   H ( 12)
   H (  8)  1.107176
   H (  9)  1.110057  1.787657
   H ( 10)  1.110095  1.787673  1.784815
   C ( 11)  4.981476  5.084207  5.745341  5.517063
   H ( 12)  5.573378  5.727347  6.190934  6.216704  1.079957
   H ( 13)  5.555783  5.455040  6.344012  6.138861  1.079979  1.527272
   H ( 14)  5.645454  5.865227  6.433757  6.035896  1.079945  1.527162
   H ( 15)  2.977333  4.030410  3.076225  3.076213  4.861180  5.171124
             H ( 13)   H ( 14)
   H ( 14)  1.775924
   H ( 15)  5.834302  5.083288
 
 Requested basis set is rimp2-cc-pVTZ
 There are 250 shells and 848 basis functions
 A cutoff of  1.0D-10 yielded   6189 shell pairs
 There are     45375 function pairs (     58355 Cartesian)
 Smallest overlap matrix eigenvalue = 1.11E-04

 Scale SEOQF with 1.000000e-01/1.000000e-01/1.000000e-01

 Standard Electronic Orientation quadrupole field applied
 Nucleus-field energy     =     0.0000000012 hartrees
 Guess from superposition of atomic densities
 Warning:  Energy on first SCF cycle will be non-variational
 SAD guess density has 60.000000 electrons

 -----------------------------------------------------------------------
  General SCF calculation program by
  Eric Jon Sundstrom, Paul Horn, Yuezhi Mao, Dmitri Zuev, Alec White,
  David Stuck, Shaama M.S., Shane Yost, Joonho Lee, David Small,
  Daniel Levine, Susi Lehtola, Hugh Burton, Evgeny Epifanovsky,
  Bang C. Huynh
 -----------------------------------------------------------------------
 Hartree-Fock
 A restricted SCF calculation will be
 performed using DIIS
 SCF converges when DIIS error is below 1.0e-06
 ---------------------------------------
  Cycle       Energy         DIIS error
 ---------------------------------------
    1    -632.1146988117      2.92e-02  
    2    -629.3196256018      1.94e-03  
    3    -629.3901352401      6.91e-04  
    4    -629.3978140740      3.46e-04  
    5    -629.3999698026      6.55e-05  
    6    -629.4001110453      2.66e-05  
    7    -629.4001471318      1.21e-05  
    8    -629.4001571916      5.21e-06  
    9    -629.4001588583      1.88e-06  
   10    -629.4001590679      5.33e-07  Convergence criterion met
 ---------------------------------------
 SCF time:   CPU 143.63s  wall 144.00s 

************** Final PCM Free Energy Summary **************
 G_electrostatic  =      -0.00523351 hartree =      -3.28407683 kcal/mol
 G_cavitation     =       0.00000000 hartree =       0.00000000 kcal/mol
 G_dispersion     =       0.00000000 hartree =       0.00000000 kcal/mol
 G_repulsion      =       0.00000000 hartree =       0.00000000 kcal/mol
 --------------------------------------------------
 Non-electrostatic Free Energy =       0.00000000 hartree =       0.00000000 kcal/mol
 Total                         =      -0.00523351 hartree =      -3.28407683 kcal/mol
 --------------------------------------------------
 SCF Energy (H0 + V/2)                       =    -629.40015907 
 Solute Internal Energy (H0)                 =    -629.39492556 
 Total Free Energy (H0 + V/2 + non-elec)     =    -629.40015907 hartree
                                             = -394954.56086398 kcal/mol
***********************************************************

 SCF   energy in the final basis set =     -629.4001590679
 Total energy in the final basis set =     -629.4001590679


 --------------------------------------------------------------
  Generalized many-body perturbation theory program
  by Joonho Lee, Fazle Rob, Xintian Feng, Evgeny Epifanovsky

 No regularization used 
 (reg. param. = 0.0000e+00)
  (P|Q)^-1/2 Time:  CPU 0.48 s  wall 0.48 s

 In RI-MP2 calculation: 
 # of frozen core orbitals: 11

 Components of the RIMP2 correlation energy:
        aaaa    correlation energy =        -0.1460019567 a.u.
        abab    correlation energy =        -0.8890474813 a.u.
        bbbb    correlation energy =        -0.1460019567 a.u.
        non-Brillouin singles      =        -0.0000000000 a.u.
        total same-spin energy     =        -0.2920039135 a.u.
        total opposite-spin energy =        -0.8890474813 a.u.

 Total  RIMP2   correlation energy =        -1.1810513948 a.u.
        RIMP2         total energy =      -630.5812104627 a.u.

 RI-MP2 Energy Time:  CPU 11.08 s  wall 11.11 s
 
 --------------------------------------------------------------
 
                    Orbital Energies (a.u.)
 --------------------------------------------------------------
 
 Alpha MOs
 -- Occupied --
-91.9782 -11.2728 -11.2583 -11.2471 -11.2295 -11.2267 -11.2147  -8.9783
 -6.6592  -6.6587  -6.6581  -1.1621  -1.0547  -0.9954  -0.9439  -0.8818
 -0.7464  -0.7200  -0.6459  -0.5881  -0.5738  -0.5685  -0.5525  -0.5457
 -0.5113  -0.4876  -0.4589  -0.4514  -0.3379  -0.2905
 -- Virtual --
  0.0950   0.1440   0.1501   0.1759   0.1874   0.1938   0.2059   0.2225
  0.2258   0.2376   0.2498   0.2531   0.2952   0.3186   0.3385   0.3546
  0.3801   0.3928   0.4013   0.4212   0.4452   0.4593   0.4705   0.4786
  0.4925   0.5084   0.5145   0.5274   0.5352   0.5708   0.5726   0.5880
  0.5963   0.6072   0.6096   0.6238   0.6280   0.6373   0.6392   0.6481
  0.6581   0.6678   0.6823   0.7007   0.7301   0.7457   0.7564   0.7788
  0.8077   0.8355   0.8420   0.8476   0.8584   0.8828   0.9047   0.9199
  0.9529   0.9735   0.9968   1.0177   1.0343   1.0575   1.0703   1.0774
  1.0880   1.1052   1.1079   1.1205   1.1587   1.1718   1.1919   1.2096
  1.2357   1.2520   1.2555   1.2570   1.2715   1.2889   1.3146   1.3357
  1.3564   1.3763   1.3982   1.4042   1.4144   1.4398   1.4602   1.4758
  1.4918   1.4998   1.5202   1.5372   1.5466   1.5509   1.5689   1.5797
  1.6109   1.6248   1.6551   1.6687   1.6861   1.6935   1.7114   1.7490
  1.7741   1.7784   1.8102   1.8243   1.8728   1.9060   1.9401   1.9584
  2.0125   2.0380   2.1057   2.1332   2.1742   2.1871   2.2155   2.2513
  2.2601   2.2762   2.3227   2.4103   2.4434   2.4590   2.5388   2.5478
  2.5616   2.6007   2.6417   2.6582   2.6727   2.7082   2.7130   2.7351
  2.7523   2.7561   2.7860   2.7948   2.8139   2.8344   2.8614   2.8751
  2.9010   2.9382   2.9717   3.0019   3.0234   3.0308   3.0453   3.0627
  3.0811   3.1129   3.1196   3.1510   3.1565   3.1798   3.1856   3.1887
  3.1961   3.2447   3.2637   3.2729   3.2897   3.2993   3.3163   3.3277
  3.3336   3.3558   3.3780   3.3830   3.3973   3.4094   3.4296   3.4327
  3.4442   3.4493   3.4865   3.4894   3.5084   3.5218   3.5416   3.5578
  3.5762   3.6013   3.6082   3.6122   3.6341   3.6586   3.6802   3.6908
  3.7004   3.7140   3.7280   3.7440   3.7665   3.7783   3.7931   3.8082
  3.8248   3.8381   3.8625   3.8765   3.8929   3.9361   3.9484   3.9634
  3.9849   4.0067   4.0113   4.0210   4.0452   4.0747   4.0953   4.1160
  4.1258   4.1519   4.1800   4.2006   4.2065   4.2193   4.2528   4.2608
  4.2855   4.3058   4.3099   4.3290   4.3435   4.3716   4.3828   4.4021
  4.4209   4.4298   4.4425   4.4526   4.4614   4.4973   4.5297   4.5630
  4.6068   4.6319   4.6396   4.6646   4.7148   4.7372   4.7383   4.7859
  4.8190   4.8309   4.8403   4.8921   4.9144   4.9400   5.0640   5.0946
  5.1103   5.1655   5.1745   5.1922   5.2101   5.2630   5.2905   5.3211
  5.3669   5.4042   5.4199   5.4472   5.4570   5.5173   5.5472   5.5656
  5.5814   5.6251   5.6344   5.6906   5.7242   5.8165   5.8215   5.8691
  5.9376   6.0233   6.0349   6.1373   6.2282   6.2394   6.2968   6.3721
  6.4395   6.4548   9.1813  11.4543  12.9030  13.8480  14.1906  14.2644
 --------------------------------------------------------------
 
          Ground-State Mulliken Net Atomic Charges

     Atom                 Charge (a.u.)
  ----------------------------------------
      1 C                    -0.003779
      2 C                    -0.242990
      3 C                     0.036331
      4 H                     0.180312
      5 C                    -0.251077
      6 S                    -0.002172
      7 C                    -0.271805
      8 H                     0.101428
      9 H                     0.107045
     10 H                     0.106091
     11 C                    -0.377651
     12 H                     0.126762
     13 H                     0.156076
     14 H                     0.140634
     15 H                     0.194793
  ----------------------------------------
  Sum of atomic charges =     0.000000

 -----------------------------------------------------------------
                    Cartesian Multipole Moments
 -----------------------------------------------------------------
    Charge (ESU x 10^10)
                -0.0000
    Dipole Moment (Debye)
         X       0.2205      Y      -0.2174      Z       1.1738
       Tot       1.2139
    Quadrupole Moments (Debye-Ang)
        XX     -51.8578     XY       5.1399     YY     -44.4991
        XZ      -0.1980     YZ       0.6353     ZZ     -48.4385
    Octopole Moments (Debye-Ang^2)
       XXX     -51.7059    XXY     -22.1063    XYY     -12.7522
       YYY     -71.1364    XXZ      -2.2817    XYZ      -0.3838
       YYZ      -4.6320    XZZ     -14.9624    YZZ     -21.2057
       ZZZ       1.9289
    Hexadecapole Moments (Debye-Ang^3)
      XXXX    -223.8897   XXXY    -140.4530   XXYY    -148.0167
      XYYY    -120.6003   YYYY    -677.3700   XXXZ     -47.2587
      XXYZ     -30.8476   XYYZ     -23.9996   YYYZ     -90.4404
      XXZZ    -121.1151   XYZZ     -39.4875   YYZZ    -190.7166
      XZZZ     -51.9714   YZZZ     -89.4142   ZZZZ    -483.0133
 -----------------------------------------------------------------
 Total job time:  155.96s(wall), 155.06s(cpu) 
 Sun Jul 10 10:04:15 2022

        *************************************************************
        *                                                           *
        *  Thank you very much for using Q-Chem.  Have a nice day.  *
        *                                                           *
        *************************************************************


remove work dirs ./qchem3442593.0 -- ./qchem3442593.-1
rm -rf ./qchem3442593
