You are running Q-Chem version: 5.4.0

#
# job setting
#
local host:  exp-7-01
current dir: /expanse/lustre/scratch/theleonzhang/temp_project/Hydrogenated_Impropers_Test
input file:  Methylthiophene_Phi_40_Theta_320_Methylthiophene_Hydrogenated_Improper.qcin
output file: 
nprocs     : 0
nthreads   : 1
#
# qchem installation setting
#
QC:          /cm/shared/apps/spack/cpu/opt/spack/linux-centos8-zen2/gcc-10.2.0/qchem-5.4-akfmr7b3t57bfs6qan3padb2wnb2i7cl
QCAUX:       /cm/shared/apps/spack/cpu/opt/spack/linux-centos8-zen2/gcc-10.2.0/qchem-5.4-akfmr7b3t57bfs6qan3padb2wnb2i7cl/qcaux
QCPROG:      /cm/shared/apps/spack/cpu/opt/spack/linux-centos8-zen2/gcc-10.2.0/qchem-5.4-akfmr7b3t57bfs6qan3padb2wnb2i7cl/exe/qcprog.exe_s
QCPROG_S:    /cm/shared/apps/spack/cpu/opt/spack/linux-centos8-zen2/gcc-10.2.0/qchem-5.4-akfmr7b3t57bfs6qan3padb2wnb2i7cl/exe/qcprog.exe_s
PARALLEL:    -DSERIAL
QCMPI:       mpich
#
# qchem directory setting
#
qcrun:       qchem922928
QCSCRATCH:   .
QCLOCALSCR:  
QCTMPDIR:    .
QCFILEPREF:  ./qchem922928
QCSAVEDIR:   
workdirs:    ./qchem922928
workdir0:    ./qchem922928
partmpdirs =  
#
# parallel setting
#
QCRSH:           ssh
QCMPI:           mpich
QCMPIRUN:        /cm/shared/apps/spack/cpu/opt/spack/linux-centos8-zen2/gcc-10.2.0/qchem-5.4-akfmr7b3t57bfs6qan3padb2wnb2i7cl/bin/mpi/mpirun_qchem
QCMACHINEFILE:   ./qchem922928/hostfile

#
# env setting
#
exported envs:   QC QCAUX QCSCRATCH QCRUNNAME QCFILEPREF QCPROG QCPROG_S GUIFILE

Running Job 1 of 1 Methylthiophene_Phi_40_Theta_320_Methylthiophene_Hydrogenated_Improper.qcin
qchem Methylthiophene_Phi_40_Theta_320_Methylthiophene_Hydrogenated_Improper.qcin_922928.0 ./qchem922928/ 0
/cm/shared/apps/spack/cpu/opt/spack/linux-centos8-zen2/gcc-10.2.0/qchem-5.4-akfmr7b3t57bfs6qan3padb2wnb2i7cl/exe/qcprog.exe_s Methylthiophene_Phi_40_Theta_320_Methylthiophene_Hydrogenated_Improper.qcin_922928.0 ./qchem922928/
                  Welcome to Q-Chem
     A Quantum Leap Into The Future Of Chemistry


 Q-Chem 5.4, Q-Chem, Inc., Pleasanton, CA (2021)

 License issued to: University of California, San Diego (site)

 E. Epifanovsky,  A. T. B. Gilbert,  Xintian Feng,  Joonho Lee,  Yuezhi Mao,  
 N. Mardirossian,  P. Pokhilko,  A. White,  M. Wormit,  M. P. Coons,  
 A. L. Dempwolff,  Zhengting Gan,  D. Hait,  P. R. Horn,  L. D. Jacobson,  
 I. Kaliman,  J. Kussmann,  A. W. Lange,  Ka Un Lao,  D. S. Levine,  Jie Liu,  
 S. C. McKenzie,  A. F. Morrison,  K. Nanda,  F. Plasser,  D. R. Rehn,  
 M. L. Vidal,  Zhi-Qiang You,  Ying Zhu,  B. Alam,  B. Albrecht,  
 A. Aldossary,  E. Alguire,  J. H. Andersen,  D. Barton,  K. Begam,  A. Behn,  
 Y. A. Bernard,  E. J. Berquist,  H. Burton,  A. Carreras,  K. Carter-Fenk,  
 R. Chakraborty,  A. D. Chien,  K. D. Closser,  V. Cofer-Shabica,  
 S. Dasgupta,  Jia Deng,  M. de Wergifosse,  M. Diedenhofen,  Hainam Do,  
 S. Ehlert,  Po-Tung Fang,  S. Fatehi,  Qingguo Feng,  J. Gayvert,  
 Qinghui Ge,  G. Gidofalvi,  M. Goldey,  J. Gomes,  C. Gonzalez-Espinoza,  
 S. Gulania,  A. Gunina,  M. W. D. Hanson-Heine,  P. H. P. Harbach,  
 A. W. Hauser,  M. F. Herbst,  M. Hernandez Vera,  M. Hodecker,  
 Z. C. Holden,  S. Houck,  Xunkun Huang,  Kerwin Hui,  B. C. Huynh,  
 M. Ivanov,  Hyunjun Ji,  Hanjie Jiang,  B. Kaduk,  S. Kaehler,  
 K. Khistyaev,  Jaehoon Kim,  P. Klunzinger,  Z. Koczor-Benda,  
 Joong Hoon Koh,  D. Kosenkov,  L. Koulias,  T. Kowalczyk,  C. M. Krauter,  
 K. Kue,  A. Kunitsa,  T. Kus,  A. Landau,  K. V. Lawler,  D. Lefrancois,  
 S. Lehtola,  Rain Li,  Yi-Pei Li,  Jiashu Liang,  M. Liebenthal,  
 Hung-Hsuan Lin,  You-Sheng Lin,  Fenglai Liu,  Kuan-Yu Liu,  
 M. Loipersberger,  A. Luenser,  A. Manjanath,  P. Manohar,  E. Mansoor,  
 S. F. Manzer,  Shan-Ping Mao,  A. V. Marenich,  T. Markovich,  S. Mason,  
 S. A. Maurer,  P. F. McLaughlin,  M. F. S. J. Menger,  J.-M. Mewes,  
 S. A. Mewes,  P. Morgante,  J. W. Mullinax,  T. S. Nguyen-Beck,  
 K. J. Oosterbaan,  G. Paran,  Alexander C. Paul,  Suranjan K. Paul,  
 F. Pavosevic,  Zheng Pei,  S. Prager,  E. I. Proynov,  E. Ramos,  B. Rana,  
 A. E. Rask,  A. Rettig,  R. M. Richard,  F. Rob,  E. Rossomme,  T. Scheele,  
 M. Scheurer,  M. Schneider,  N. Sergueev,  S. M. Sharada,  W. Skomorowski,  
 D. W. Small,  C. J. Stein,  Yu-Chuan Su,  E. J. Sundstrom,  Zhen Tao,  
 J. Thirman,  T. Tsuchimochi,  N. M. Tubman,  S. P. Veccham,  O. Vydrov,  
 J. Wenzel,  J. Witte,  A. Yamada,  Kun Yao,  S. Yeganeh,  S. R. Yost,  
 A. Zech,  Igor Ying Zhang,  Xing Zhang,  Yu Zhang,  D. Zuev,  
 A. Aspuru-Guzik,  A. T. Bell,  N. A. Besley,  K. B. Bravaya,  B. R. Brooks,  
 D. Casanova,  Jeng-Da Chai,  S. Coriani,  C. J. Cramer,  
 A. E. DePrince, III,  R. A. DiStasio Jr.,  A. Dreuw,  B. D. Dunietz,  
 T. R. Furlani,  W. A. Goddard III,  S. Grimme,  S. Hammes-Schiffer,  
 T. Head-Gordon,  W. J. Hehre,  Chao-Ping Hsu,  T.-C. Jagau,  Yousung Jung,  
 A. Klamt,  Jing Kong,  D. S. Lambrecht,  WanZhen Liang,  N. J. Mayhall,  
 C. W. McCurdy,  J. B. Neaton,  C. Ochsenfeld,  J. A. Parkhill,  R. Peverati,  
 V. A. Rassolov,  Yihan Shao,  L. V. Slipchenko,  T. Stauch,  R. P. Steele,  
 J. E. Subotnik,  A. J. W. Thom,  A. Tkatchenko,  D. G. Truhlar,  
 T. Van Voorhis,  T. A. Wesolowski,  K. B. Whaley,  H. L. Woodcock III,  
 P. M. Zimmerman,  S. Faraji,  P. M. W. Gill,  M. Head-Gordon,  
 J. M. Herbert,  A. I. Krylov

 Contributors to earlier versions of Q-Chem not listed above: 
 R. D. Adamson,  B. Austin,  R. Baer,  J. Baker,  G. J. O. Beran,  
 K. Brandhorst,  S. T. Brown,  E. F. C. Byrd,  A. K. Chakraborty,  
 G. K. L. Chan,  Chun-Min Chang,  Yunqing Chen,  C.-L. Cheng,  
 Siu Hung Chien,  D. M. Chipman,  D. L. Crittenden,  H. Dachsel,  
 R. J. Doerksen,  A. D. Dutoi,  R. G. Edgar,  J. Fosso-Tande,  
 L. Fusti-Molnar,  D. Ghosh,  A. Ghysels,  A. Golubeva-Zadorozhnaya,  
 J. Gonthier,  M. S. Gordon,  S. R. Gwaltney,  G. Hawkins,  J. E. Herr,  
 A. Heyden,  S. Hirata,  E. G. Hohenstein,  G. Kedziora,  F. J. Keil,  
 C. Kelley,  Jihan Kim,  R. A. King,  R. Z. Khaliullin,  P. P. Korambath,  
 W. Kurlancheek,  A. Laurent,  A. M. Lee,  M. S. Lee,  S. V. Levchenko,  
 Ching Yeh Lin,  D. Liotard,  E. Livshits,  R. C. Lochan,  I. Lotan,  
 L. A. Martinez-Martinez,  P. E. Maslen,  N. Nair,  D. P. O'Neill,  
 D. Neuhauser,  E. Neuscamman,  C. M. Oana,  R. Olivares-Amaya,  R. Olson,  
 T. M. Perrine,  B. Peters,  P. A. Pieniazek,  A. Prociuk,  Y. M. Rhee,  
 J. Ritchie,  M. A. Rohrdanz,  E. Rosta,  N. J. Russ,  H. F. Schaefer III,  
 M. W. Schmidt,  N. E. Schultz,  S. Sharma,  N. Shenvi,  C. D. Sherrill,  
 A. C. Simmonett,  A. Sodt,  T. Stein,  D. Stuck,  K. S. Thanthiriwatte,  
 V. Vanovschi,  L. Vogt,  Tao Wang,  A. Warshel,  M. A. Watson,  
 C. F. Williams,  Q. Wu,  X. Xu,  Jun Yang,  W. Zhang,  Yan Zhao

 Please cite Q-Chem as follows:
 Y. Shao et al., Mol. Phys. 113, 184-215 (2015)
 DOI: 10.1080/00268976.2014.952696

 Q-Chem 5.4.0 for Intel X86 EM64T Linux

 Parts of Q-Chem use Armadillo 9.800.1 (Horizon Scraper).
 http://arma.sourceforge.net/

 Q-Chem begins on Sun Jul 10 09:53:07 2022  

 Host: 
0

     Scratch files written to ./qchem922928//
 May1621 |scratch|qcdevops|jenkins|workspace|build_RNUM    
 Processing $rem in /cm/shared/apps/spack/cpu/opt/spack/linux-centos8-zen2/gcc-10.2.0/qchem-5.4-akfmr7b3t57bfs6qan3padb2wnb2i7cl/config/preferences:
 Processing $rem in /home/theleonzhang/.qchemrc:
 Symmetry turned off for PCM/SM12/SMD calculation
 Core orbitals will be frozen

 Checking the input file for inconsistencies... 	...done.

--------------------------------------------------------------
User input:
--------------------------------------------------------------
$molecule
0 1
C	-0.432693	-0.417597	0.011474
C	0.122407	0.243903	1.110874
C	1.012007	1.304103	0.788174
H	-0.114593	-0.038597	2.147574
C	1.153907	1.473103	-0.601026
S	0.173107	0.304303	-1.475326
C	1.711207	2.137303	1.826074
H	1.437607	1.811303	2.848174
H	1.448207	3.212103	1.737674
H	2.815407	2.064903	1.737674
C	-0.432693	-1.858297	0.011474
H	-1.260093	-1.857997	0.705574
H	-0.959193	-2.562097	-0.616126
H	0.176107	-2.377197	0.736974
H	1.764007	2.200203	-1.150126
$end

$rem
JOBTYPE		SP
EXCHANGE	HF
CORRELATION	pRIMP2
BASIS		cc-pvtz
METHOD		rimp2
AUX_BASIS	rimp2-cc-pvtz
SOLVENT_METHOD	PCM
PURECART	11111
SYMMETRY	false
MEM_TOTAL	110000
SCF_CONVERGENCE = 6
THRESH=10
$end



$solvent
dielectric 4.90
$end
--------------------------------------------------------------
 ----------------------------------------------------------------
             Standard Nuclear Orientation (Angstroms)
    I     Atom           X                Y                Z
 ----------------------------------------------------------------
    1      C      -0.4326930000    -0.4175970000     0.0114740000
    2      C       0.1224070000     0.2439030000     1.1108740000
    3      C       1.0120070000     1.3041030000     0.7881740000
    4      H      -0.1145930000    -0.0385970000     2.1475740000
    5      C       1.1539070000     1.4731030000    -0.6010260000
    6      S       0.1731070000     0.3043030000    -1.4753260000
    7      C       1.7112070000     2.1373030000     1.8260740000
    8      H       1.4376070000     1.8113030000     2.8481740000
    9      H       1.4482070000     3.2121030000     1.7376740000
   10      H       2.8154070000     2.0649030000     1.7376740000
   11      C      -0.4326930000    -1.8582970000     0.0114740000
   12      H      -1.2600930000    -1.8579970000     0.7055740000
   13      H      -0.9591930000    -2.5620970000    -0.6161260000
   14      H       0.1761070000    -2.3771970000     0.7369740000
   15      H       1.7640070000     2.2002030000    -1.1501260000
 ----------------------------------------------------------------
 Nuclear Repulsion Energy =         346.74493474 hartrees
 There are       30 alpha and       30 beta electrons

 Q-Chem warning in module forms1/BasisType.C, line 2236:

 You are not using the predefined 5D/6D in this basis set.

 Requested basis set is cc-pVTZ
 There are 120 shells and 326 basis functions

 Total QAlloc Memory Limit 110000 MB
 Mega-Array Size       188 MB
 MEM_STATIC part       192 MB
 Discretize the solute cavity surface with Lebedev spheres
	Using 110 Lebedev grid points for each H atom
	Using 194 Lebedev grid points for other atoms
	Atomic van der Waals radii will be scaled by 1.20
 Remove points where switching function is < 1.0e-08
 Keep 1055 surface tesserae and discard 1183 interior tesserae
 Molecular Surface Area = 157.573 Angst**2

                       Distance Matrix (Angstroms)
             C (  1)   C (  2)   C (  3)   H (  4)   C (  5)   S (  6)
   C (  2)  1.397998
   C (  3)  2.377955  1.421108
   H (  4)  2.192659  1.100328  2.218116
   C (  5)  2.543069  2.346386  1.406618  3.383656
   S (  6)  1.760315  2.587402  2.612812  3.650446  1.758540
   C (  7)  3.796919  2.573084  1.503442  2.858575  2.577316  4.077362
   H (  8)  4.063605  2.684158  2.163790  2.514417  3.477333  4.750017
   H (  9)  4.437598  3.310715  2.175382  3.630071  2.929207  4.517140
   H ( 10)  4.437649  3.310766  2.175458  3.630101  2.929220  4.517171
   C ( 11)  1.440700  2.436403  3.562470  2.824078  3.740412  2.693401
   H ( 12)  1.800310  2.548246  3.894629  2.588774  4.316344  3.389090
   H ( 13)  2.295640  3.467856  4.561271  3.836592  4.555026  3.199465
   H ( 14)  2.176470  2.648179  3.775357  2.746516  4.191795  3.476309
   H ( 15)  3.609388  3.410877  2.263958  4.406380  1.096543  2.496228
             C (  7)   H (  8)   H (  9)   H ( 10)   C ( 11)   H ( 12)
   H (  8)  1.107168
   H (  9)  1.110035  1.787614
   H ( 10)  1.110096  1.787696  1.784742
   C ( 11)  4.884045  5.001085  5.676840  5.377864
   H ( 12)  5.103584  5.033099  5.840037  5.750137  1.079984
   H ( 13)  5.931251  6.072286  6.684111  6.418497  1.080009  1.527478
   H ( 14)  4.891153  4.857168  5.818927  5.263037  1.079928  1.527490
   H ( 15)  2.977333  4.030407  3.076209  3.076221  4.758805  5.390528
             H ( 13)   H ( 14)
   H ( 14)  1.775943
   H ( 15)  5.511849  5.199535
 
 Requested basis set is rimp2-cc-pVTZ
 There are 250 shells and 848 basis functions
 A cutoff of  1.0D-10 yielded   6245 shell pairs
 There are     45865 function pairs (     59006 Cartesian)
 Smallest overlap matrix eigenvalue = 1.22E-04

 Scale SEOQF with 1.000000e-01/1.000000e-01/1.000000e-01

 Standard Electronic Orientation quadrupole field applied
 Nucleus-field energy     =     0.0000000003 hartrees
 Guess from superposition of atomic densities
 Warning:  Energy on first SCF cycle will be non-variational
 SAD guess density has 60.000000 electrons

 -----------------------------------------------------------------------
  General SCF calculation program by
  Eric Jon Sundstrom, Paul Horn, Yuezhi Mao, Dmitri Zuev, Alec White,
  David Stuck, Shaama M.S., Shane Yost, Joonho Lee, David Small,
  Daniel Levine, Susi Lehtola, Hugh Burton, Evgeny Epifanovsky,
  Bang C. Huynh
 -----------------------------------------------------------------------
 Hartree-Fock
 A restricted SCF calculation will be
 performed using DIIS
 SCF converges when DIIS error is below 1.0e-06
 ---------------------------------------
  Cycle       Energy         DIIS error
 ---------------------------------------
    1    -632.1328698768      2.93e-02  
    2    -629.3111384049      1.89e-03  
    3    -629.3803747620      6.18e-04  
    4    -629.3873205516      3.05e-04  
    5    -629.3889924276      6.27e-05  
    6    -629.3891250576      2.45e-05  
    7    -629.3891592619      1.18e-05  
    8    -629.3891696220      4.50e-06  
    9    -629.3891712530      2.13e-06  
   10    -629.3891714710      6.28e-07  Convergence criterion met
 ---------------------------------------
 SCF time:   CPU 144.41s  wall 145.00s 

************** Final PCM Free Energy Summary **************
 G_electrostatic  =      -0.00541968 hartree =      -3.40090165 kcal/mol
 G_cavitation     =       0.00000000 hartree =       0.00000000 kcal/mol
 G_dispersion     =       0.00000000 hartree =       0.00000000 kcal/mol
 G_repulsion      =       0.00000000 hartree =       0.00000000 kcal/mol
 --------------------------------------------------
 Non-electrostatic Free Energy =       0.00000000 hartree =       0.00000000 kcal/mol
 Total                         =      -0.00541968 hartree =      -3.40090165 kcal/mol
 --------------------------------------------------
 SCF Energy (H0 + V/2)                       =    -629.38917147 
 Solute Internal Energy (H0)                 =    -629.38375179 
 Total Free Energy (H0 + V/2 + non-elec)     =    -629.38917147 hartree
                                             = -394947.66604290 kcal/mol
***********************************************************

 SCF   energy in the final basis set =     -629.3891714710
 Total energy in the final basis set =     -629.3891714710


 --------------------------------------------------------------
  Generalized many-body perturbation theory program
  by Joonho Lee, Fazle Rob, Xintian Feng, Evgeny Epifanovsky

 No regularization used 
 (reg. param. = 0.0000e+00)
  (P|Q)^-1/2 Time:  CPU 0.49 s  wall 0.49 s

 In RI-MP2 calculation: 
 # of frozen core orbitals: 11

 Components of the RIMP2 correlation energy:
        aaaa    correlation energy =        -0.1469137448 a.u.
        abab    correlation energy =        -0.8916639259 a.u.
        bbbb    correlation energy =        -0.1469137448 a.u.
        non-Brillouin singles      =        -0.0000000000 a.u.
        total same-spin energy     =        -0.2938274896 a.u.
        total opposite-spin energy =        -0.8916639259 a.u.

 Total  RIMP2   correlation energy =        -1.1854914154 a.u.
        RIMP2         total energy =      -630.5746628865 a.u.

 RI-MP2 Energy Time:  CPU 11.79 s  wall 11.83 s
 
 --------------------------------------------------------------
 
                    Orbital Energies (a.u.)
 --------------------------------------------------------------
 
 Alpha MOs
 -- Occupied --
-91.9727 -11.2664 -11.2638 -11.2484 -11.2388 -11.2279 -11.2125  -8.9733
 -6.6542  -6.6534  -6.6530  -1.1645  -1.0541  -0.9983  -0.9384  -0.8837
 -0.7442  -0.7249  -0.6442  -0.5883  -0.5793  -0.5656  -0.5570  -0.5430
 -0.5142  -0.4896  -0.4607  -0.4331  -0.3370  -0.2932
 -- Virtual --
  0.0834   0.1440   0.1537   0.1753   0.1790   0.1888   0.2125   0.2216
  0.2306   0.2423   0.2516   0.2603   0.2923   0.3117   0.3392   0.3500
  0.3763   0.3983   0.4141   0.4244   0.4289   0.4530   0.4652   0.4733
  0.4841   0.4923   0.5194   0.5384   0.5480   0.5537   0.5662   0.5839
  0.5934   0.6043   0.6106   0.6201   0.6291   0.6369   0.6460   0.6531
  0.6600   0.6660   0.6816   0.6958   0.7061   0.7448   0.7597   0.7834
  0.7988   0.8075   0.8370   0.8586   0.8800   0.8884   0.9171   0.9339
  0.9589   0.9890   1.0071   1.0258   1.0358   1.0453   1.0582   1.0662
  1.0852   1.0890   1.1060   1.1326   1.1463   1.1737   1.1986   1.2152
  1.2196   1.2420   1.2542   1.2618   1.2902   1.3029   1.3092   1.3135
  1.3453   1.3883   1.3962   1.4192   1.4356   1.4374   1.4530   1.4787
  1.4846   1.5029   1.5086   1.5285   1.5327   1.5603   1.5714   1.5823
  1.5892   1.6219   1.6518   1.6663   1.6878   1.7000   1.7110   1.7428
  1.7608   1.7910   1.7973   1.8235   1.8905   1.9136   1.9355   1.9673
  1.9833   2.0373   2.1150   2.1295   2.1672   2.1843   2.1997   2.2172
  2.2640   2.2702   2.3527   2.4107   2.4155   2.4848   2.5360   2.5546
  2.5731   2.5806   2.6574   2.6629   2.6749   2.6786   2.6858   2.7382
  2.7498   2.7711   2.7822   2.8006   2.8149   2.8360   2.8411   2.9005
  2.9231   2.9407   2.9678   2.9825   3.0128   3.0330   3.0459   3.0778
  3.0903   3.1118   3.1131   3.1306   3.1537   3.1622   3.1731   3.2004
  3.2202   3.2377   3.2483   3.2660   3.2925   3.3004   3.3142   3.3242
  3.3396   3.3599   3.3778   3.3869   3.4049   3.4099   3.4196   3.4344
  3.4503   3.4707   3.4902   3.5132   3.5158   3.5235   3.5422   3.5611
  3.5849   3.5965   3.6038   3.6260   3.6285   3.6540   3.6777   3.6821
  3.6866   3.7192   3.7303   3.7377   3.7644   3.7709   3.7889   3.8189
  3.8305   3.8429   3.8491   3.8902   3.9035   3.9218   3.9487   3.9701
  3.9809   3.9870   4.0001   4.0315   4.0383   4.0565   4.0971   4.1146
  4.1318   4.1579   4.1757   4.2034   4.2223   4.2252   4.2490   4.2711
  4.2830   4.2944   4.3035   4.3373   4.3495   4.3848   4.3953   4.4019
  4.4092   4.4363   4.4431   4.4819   4.5066   4.5288   4.5431   4.5889
  4.5963   4.6284   4.6632   4.6813   4.7005   4.7261   4.7503   4.7995
  4.8178   4.8375   4.8752   4.9060   4.9159   4.9192   5.0361   5.1039
  5.1129   5.1261   5.1379   5.1840   5.2073   5.2601   5.2862   5.3169
  5.3667   5.3960   5.4196   5.4347   5.4834   5.5050   5.5474   5.5568
  5.5856   5.6244   5.6282   5.6817   5.7256   5.7975   5.8306   5.8762
  5.9346   5.9919   6.0695   6.1301   6.2277   6.2303   6.2709   6.3583
  6.4281   6.4835   9.3198  11.5612  12.8573  13.6259  14.1792  14.4992
 --------------------------------------------------------------
 
          Ground-State Mulliken Net Atomic Charges

     Atom                 Charge (a.u.)
  ----------------------------------------
      1 C                    -0.001445
      2 C                    -0.244167
      3 C                     0.027884
      4 H                     0.178868
      5 C                    -0.233042
      6 S                     0.002415
      7 C                    -0.269980
      8 H                     0.101303
      9 H                     0.107068
     10 H                     0.106335
     11 C                    -0.385009
     12 H                     0.125781
     13 H                     0.150963
     14 H                     0.140619
     15 H                     0.192408
  ----------------------------------------
  Sum of atomic charges =     0.000000

 -----------------------------------------------------------------
                    Cartesian Multipole Moments
 -----------------------------------------------------------------
    Charge (ESU x 10^10)
                -0.0000
    Dipole Moment (Debye)
         X       0.6972      Y      -0.0880      Z       2.0260
       Tot       2.1444
    Quadrupole Moments (Debye-Ang)
        XX     -50.3134     XY       5.6213     YY     -46.3188
        XZ       0.2570     YZ      -0.5134     ZZ     -48.4278
    Octopole Moments (Debye-Ang^2)
       XXX     -63.9178    XXY     -16.3136    XYY     -17.4392
       YYY     -61.9564    XXZ      -3.6533    XYZ      -2.6405
       YYZ      -2.9084    XZZ     -19.3919    YZZ     -17.9035
       ZZZ       1.5254
    Hexadecapole Moments (Debye-Ang^3)
      XXXX    -313.0417   XXXY    -155.9245   XXYY    -141.3915
      XYYY    -144.6531   YYYY    -586.2292   XXXZ     -61.3873
      XXYZ     -25.8778   XYYZ     -21.3351   YYYZ     -74.7721
      XXZZ    -133.2191   XYZZ     -45.7059   YYZZ    -177.5612
      XZZZ     -64.6069   YZZZ     -73.9354   ZZZZ    -483.1093
 -----------------------------------------------------------------
 Total job time:  158.57s(wall), 156.58s(cpu) 
 Sun Jul 10 09:55:46 2022

        *************************************************************
        *                                                           *
        *  Thank you very much for using Q-Chem.  Have a nice day.  *
        *                                                           *
        *************************************************************


remove work dirs ./qchem922928.0 -- ./qchem922928.-1
rm -rf ./qchem922928
