You are running Q-Chem version: 5.4.0

#
# job setting
#
local host:  exp-1-55
current dir: /expanse/lustre/scratch/theleonzhang/temp_project/Hydrogenated_Impropers_Test
input file:  Methylthiophene_Phi_20_Theta_220_Methylthiophene_Hydrogenated_Improper_Alternate.qcin
output file: 
nprocs     : 0
nthreads   : 1
#
# qchem installation setting
#
QC:          /cm/shared/apps/spack/cpu/opt/spack/linux-centos8-zen2/gcc-10.2.0/qchem-5.4-akfmr7b3t57bfs6qan3padb2wnb2i7cl
QCAUX:       /cm/shared/apps/spack/cpu/opt/spack/linux-centos8-zen2/gcc-10.2.0/qchem-5.4-akfmr7b3t57bfs6qan3padb2wnb2i7cl/qcaux
QCPROG:      /cm/shared/apps/spack/cpu/opt/spack/linux-centos8-zen2/gcc-10.2.0/qchem-5.4-akfmr7b3t57bfs6qan3padb2wnb2i7cl/exe/qcprog.exe_s
QCPROG_S:    /cm/shared/apps/spack/cpu/opt/spack/linux-centos8-zen2/gcc-10.2.0/qchem-5.4-akfmr7b3t57bfs6qan3padb2wnb2i7cl/exe/qcprog.exe_s
PARALLEL:    -DSERIAL
QCMPI:       mpich
#
# qchem directory setting
#
qcrun:       qchem1522929
QCSCRATCH:   .
QCLOCALSCR:  
QCTMPDIR:    .
QCFILEPREF:  ./qchem1522929
QCSAVEDIR:   
workdirs:    ./qchem1522929
workdir0:    ./qchem1522929
partmpdirs =  
#
# parallel setting
#
QCRSH:           ssh
QCMPI:           mpich
QCMPIRUN:        /cm/shared/apps/spack/cpu/opt/spack/linux-centos8-zen2/gcc-10.2.0/qchem-5.4-akfmr7b3t57bfs6qan3padb2wnb2i7cl/bin/mpi/mpirun_qchem
QCMACHINEFILE:   ./qchem1522929/hostfile

#
# env setting
#
exported envs:   QC QCAUX QCSCRATCH QCRUNNAME QCFILEPREF QCPROG QCPROG_S GUIFILE

Running Job 1 of 1 Methylthiophene_Phi_20_Theta_220_Methylthiophene_Hydrogenated_Improper_Alternate.qcin
qchem Methylthiophene_Phi_20_Theta_220_Methylthiophene_Hydrogenated_Improper_Alternate.qcin_1522929.0 ./qchem1522929/ 0
/cm/shared/apps/spack/cpu/opt/spack/linux-centos8-zen2/gcc-10.2.0/qchem-5.4-akfmr7b3t57bfs6qan3padb2wnb2i7cl/exe/qcprog.exe_s Methylthiophene_Phi_20_Theta_220_Methylthiophene_Hydrogenated_Improper_Alternate.qcin_1522929.0 ./qchem1522929/
                  Welcome to Q-Chem
     A Quantum Leap Into The Future Of Chemistry


 Q-Chem 5.4, Q-Chem, Inc., Pleasanton, CA (2021)

 License issued to: University of California, San Diego (site)

 E. Epifanovsky,  A. T. B. Gilbert,  Xintian Feng,  Joonho Lee,  Yuezhi Mao,  
 N. Mardirossian,  P. Pokhilko,  A. White,  M. Wormit,  M. P. Coons,  
 A. L. Dempwolff,  Zhengting Gan,  D. Hait,  P. R. Horn,  L. D. Jacobson,  
 I. Kaliman,  J. Kussmann,  A. W. Lange,  Ka Un Lao,  D. S. Levine,  Jie Liu,  
 S. C. McKenzie,  A. F. Morrison,  K. Nanda,  F. Plasser,  D. R. Rehn,  
 M. L. Vidal,  Zhi-Qiang You,  Ying Zhu,  B. Alam,  B. Albrecht,  
 A. Aldossary,  E. Alguire,  J. H. Andersen,  D. Barton,  K. Begam,  A. Behn,  
 Y. A. Bernard,  E. J. Berquist,  H. Burton,  A. Carreras,  K. Carter-Fenk,  
 R. Chakraborty,  A. D. Chien,  K. D. Closser,  V. Cofer-Shabica,  
 S. Dasgupta,  Jia Deng,  M. de Wergifosse,  M. Diedenhofen,  Hainam Do,  
 S. Ehlert,  Po-Tung Fang,  S. Fatehi,  Qingguo Feng,  J. Gayvert,  
 Qinghui Ge,  G. Gidofalvi,  M. Goldey,  J. Gomes,  C. Gonzalez-Espinoza,  
 S. Gulania,  A. Gunina,  M. W. D. Hanson-Heine,  P. H. P. Harbach,  
 A. W. Hauser,  M. F. Herbst,  M. Hernandez Vera,  M. Hodecker,  
 Z. C. Holden,  S. Houck,  Xunkun Huang,  Kerwin Hui,  B. C. Huynh,  
 M. Ivanov,  Hyunjun Ji,  Hanjie Jiang,  B. Kaduk,  S. Kaehler,  
 K. Khistyaev,  Jaehoon Kim,  P. Klunzinger,  Z. Koczor-Benda,  
 Joong Hoon Koh,  D. Kosenkov,  L. Koulias,  T. Kowalczyk,  C. M. Krauter,  
 K. Kue,  A. Kunitsa,  T. Kus,  A. Landau,  K. V. Lawler,  D. Lefrancois,  
 S. Lehtola,  Rain Li,  Yi-Pei Li,  Jiashu Liang,  M. Liebenthal,  
 Hung-Hsuan Lin,  You-Sheng Lin,  Fenglai Liu,  Kuan-Yu Liu,  
 M. Loipersberger,  A. Luenser,  A. Manjanath,  P. Manohar,  E. Mansoor,  
 S. F. Manzer,  Shan-Ping Mao,  A. V. Marenich,  T. Markovich,  S. Mason,  
 S. A. Maurer,  P. F. McLaughlin,  M. F. S. J. Menger,  J.-M. Mewes,  
 S. A. Mewes,  P. Morgante,  J. W. Mullinax,  T. S. Nguyen-Beck,  
 K. J. Oosterbaan,  G. Paran,  Alexander C. Paul,  Suranjan K. Paul,  
 F. Pavosevic,  Zheng Pei,  S. Prager,  E. I. Proynov,  E. Ramos,  B. Rana,  
 A. E. Rask,  A. Rettig,  R. M. Richard,  F. Rob,  E. Rossomme,  T. Scheele,  
 M. Scheurer,  M. Schneider,  N. Sergueev,  S. M. Sharada,  W. Skomorowski,  
 D. W. Small,  C. J. Stein,  Yu-Chuan Su,  E. J. Sundstrom,  Zhen Tao,  
 J. Thirman,  T. Tsuchimochi,  N. M. Tubman,  S. P. Veccham,  O. Vydrov,  
 J. Wenzel,  J. Witte,  A. Yamada,  Kun Yao,  S. Yeganeh,  S. R. Yost,  
 A. Zech,  Igor Ying Zhang,  Xing Zhang,  Yu Zhang,  D. Zuev,  
 A. Aspuru-Guzik,  A. T. Bell,  N. A. Besley,  K. B. Bravaya,  B. R. Brooks,  
 D. Casanova,  Jeng-Da Chai,  S. Coriani,  C. J. Cramer,  
 A. E. DePrince, III,  R. A. DiStasio Jr.,  A. Dreuw,  B. D. Dunietz,  
 T. R. Furlani,  W. A. Goddard III,  S. Grimme,  S. Hammes-Schiffer,  
 T. Head-Gordon,  W. J. Hehre,  Chao-Ping Hsu,  T.-C. Jagau,  Yousung Jung,  
 A. Klamt,  Jing Kong,  D. S. Lambrecht,  WanZhen Liang,  N. J. Mayhall,  
 C. W. McCurdy,  J. B. Neaton,  C. Ochsenfeld,  J. A. Parkhill,  R. Peverati,  
 V. A. Rassolov,  Yihan Shao,  L. V. Slipchenko,  T. Stauch,  R. P. Steele,  
 J. E. Subotnik,  A. J. W. Thom,  A. Tkatchenko,  D. G. Truhlar,  
 T. Van Voorhis,  T. A. Wesolowski,  K. B. Whaley,  H. L. Woodcock III,  
 P. M. Zimmerman,  S. Faraji,  P. M. W. Gill,  M. Head-Gordon,  
 J. M. Herbert,  A. I. Krylov

 Contributors to earlier versions of Q-Chem not listed above: 
 R. D. Adamson,  B. Austin,  R. Baer,  J. Baker,  G. J. O. Beran,  
 K. Brandhorst,  S. T. Brown,  E. F. C. Byrd,  A. K. Chakraborty,  
 G. K. L. Chan,  Chun-Min Chang,  Yunqing Chen,  C.-L. Cheng,  
 Siu Hung Chien,  D. M. Chipman,  D. L. Crittenden,  H. Dachsel,  
 R. J. Doerksen,  A. D. Dutoi,  R. G. Edgar,  J. Fosso-Tande,  
 L. Fusti-Molnar,  D. Ghosh,  A. Ghysels,  A. Golubeva-Zadorozhnaya,  
 J. Gonthier,  M. S. Gordon,  S. R. Gwaltney,  G. Hawkins,  J. E. Herr,  
 A. Heyden,  S. Hirata,  E. G. Hohenstein,  G. Kedziora,  F. J. Keil,  
 C. Kelley,  Jihan Kim,  R. A. King,  R. Z. Khaliullin,  P. P. Korambath,  
 W. Kurlancheek,  A. Laurent,  A. M. Lee,  M. S. Lee,  S. V. Levchenko,  
 Ching Yeh Lin,  D. Liotard,  E. Livshits,  R. C. Lochan,  I. Lotan,  
 L. A. Martinez-Martinez,  P. E. Maslen,  N. Nair,  D. P. O'Neill,  
 D. Neuhauser,  E. Neuscamman,  C. M. Oana,  R. Olivares-Amaya,  R. Olson,  
 T. M. Perrine,  B. Peters,  P. A. Pieniazek,  A. Prociuk,  Y. M. Rhee,  
 J. Ritchie,  M. A. Rohrdanz,  E. Rosta,  N. J. Russ,  H. F. Schaefer III,  
 M. W. Schmidt,  N. E. Schultz,  S. Sharma,  N. Shenvi,  C. D. Sherrill,  
 A. C. Simmonett,  A. Sodt,  T. Stein,  D. Stuck,  K. S. Thanthiriwatte,  
 V. Vanovschi,  L. Vogt,  Tao Wang,  A. Warshel,  M. A. Watson,  
 C. F. Williams,  Q. Wu,  X. Xu,  Jun Yang,  W. Zhang,  Yan Zhao

 Please cite Q-Chem as follows:
 Y. Shao et al., Mol. Phys. 113, 184-215 (2015)
 DOI: 10.1080/00268976.2014.952696

 Q-Chem 5.4.0 for Intel X86 EM64T Linux

 Parts of Q-Chem use Armadillo 9.800.1 (Horizon Scraper).
 http://arma.sourceforge.net/

 Q-Chem begins on Sun Jul 10 10:18:08 2022  

 Host: 
0

     Scratch files written to ./qchem1522929//
 May1621 |scratch|qcdevops|jenkins|workspace|build_RNUM    
 Processing $rem in /cm/shared/apps/spack/cpu/opt/spack/linux-centos8-zen2/gcc-10.2.0/qchem-5.4-akfmr7b3t57bfs6qan3padb2wnb2i7cl/config/preferences:
 Processing $rem in /home/theleonzhang/.qchemrc:
 Symmetry turned off for PCM/SM12/SMD calculation
 Core orbitals will be frozen

 Checking the input file for inconsistencies... 	...done.

--------------------------------------------------------------
User input:
--------------------------------------------------------------
$molecule
0 1
C	-0.236097	-0.535397	0.012353
C	0.059303	0.276103	1.111753
C	0.532603	1.576503	0.789053
H	-0.066797	-0.070397	2.148453
C	0.608103	1.783903	-0.600147
S	0.086203	0.350203	-1.474447
C	0.904703	2.598703	1.826953
H	0.759103	2.198703	2.849053
H	0.289903	3.518703	1.738553
H	1.967103	2.908303	1.738553
C	-0.236097	-1.976097	0.012353
H	0.591203	-1.975797	0.706653
H	-0.762697	-2.679897	0.639853
H	0.372703	-2.494997	-0.713247
H	0.932803	2.675903	-1.149247
$end

$rem
JOBTYPE		SP
EXCHANGE	HF
CORRELATION	pRIMP2
BASIS		cc-pvtz
METHOD		rimp2
AUX_BASIS	rimp2-cc-pvtz
SOLVENT_METHOD	PCM
PURECART	11111
SYMMETRY	false
MEM_TOTAL	110000
SCF_CONVERGENCE = 6
THRESH=10
$end



$solvent
dielectric 4.90
$end
--------------------------------------------------------------
 ----------------------------------------------------------------
             Standard Nuclear Orientation (Angstroms)
    I     Atom           X                Y                Z
 ----------------------------------------------------------------
    1      C      -0.2360970000    -0.5353970000     0.0123530000
    2      C       0.0593030000     0.2761030000     1.1117530000
    3      C       0.5326030000     1.5765030000     0.7890530000
    4      H      -0.0667970000    -0.0703970000     2.1484530000
    5      C       0.6081030000     1.7839030000    -0.6001470000
    6      S       0.0862030000     0.3502030000    -1.4744470000
    7      C       0.9047030000     2.5987030000     1.8269530000
    8      H       0.7591030000     2.1987030000     2.8490530000
    9      H       0.2899030000     3.5187030000     1.7385530000
   10      H       1.9671030000     2.9083030000     1.7385530000
   11      C      -0.2360970000    -1.9760970000     0.0123530000
   12      H       0.5912030000    -1.9757970000     0.7066530000
   13      H      -0.7626970000    -2.6798970000     0.6398530000
   14      H       0.3727030000    -2.4949970000    -0.7132470000
   15      H       0.9328030000     2.6759030000    -1.1492470000
 ----------------------------------------------------------------
 Nuclear Repulsion Energy =         345.29143727 hartrees
 There are       30 alpha and       30 beta electrons

 Q-Chem warning in module forms1/BasisType.C, line 2236:

 You are not using the predefined 5D/6D in this basis set.

 Requested basis set is cc-pVTZ
 There are 120 shells and 326 basis functions

 Total QAlloc Memory Limit 110000 MB
 Mega-Array Size       188 MB
 MEM_STATIC part       192 MB
 Discretize the solute cavity surface with Lebedev spheres
	Using 110 Lebedev grid points for each H atom
	Using 194 Lebedev grid points for other atoms
	Atomic van der Waals radii will be scaled by 1.20
 Remove points where switching function is < 1.0e-08
 Keep 1067 surface tesserae and discard 1171 interior tesserae
 Molecular Surface Area = 158.148 Angst**2

                       Distance Matrix (Angstroms)
             C (  1)   C (  2)   C (  3)   H (  4)   C (  5)   S (  6)
   C (  2)  1.398025
   C (  3)  2.377874  1.420981
   H (  4)  2.192672  1.100323  2.218001
   C (  5)  2.543026  2.346326  1.406624  3.383596
   S (  6)  1.760324  2.587401  2.612760  3.650441  1.758487
   C (  7)  3.796944  2.573069  1.503525  2.858543  2.577341  4.077369
   H (  8)  4.063569  2.684087  2.163801  2.514312  3.477332  4.749989
   H (  9)  4.437586  3.310666  2.175453  3.629999  2.929215  4.517107
   H ( 10)  4.437671  3.310749  2.175553  3.630072  2.929279  4.517193
   C ( 11)  1.440700  2.523558  3.716871  2.867626  3.901978  2.779590
   H ( 12)  1.800342  2.349059  3.553739  2.478366  3.980371  3.228389
   H ( 13)  2.295636  3.104241  4.451629  3.093484  4.831377  3.791095
   H ( 14)  2.176503  3.332843  4.342762  3.776397  4.286862  2.959167
   H ( 15)  3.609444  3.410889  2.264033  4.406381  1.096633  2.496271
             C (  7)   H (  8)   H (  9)   H ( 10)   C ( 11)   H ( 12)
   H (  8)  1.107198
   H (  9)  1.110042  1.787669
   H ( 10)  1.110117  1.787738  1.784822
   C ( 11)  5.052029  5.144535  5.783534  5.629496
   H ( 12)  4.720106  4.695159  5.598672  5.178064  1.080036
   H ( 13)  5.661541  5.567511  6.382613  6.315610  1.079999  1.527503
   H ( 14)  5.716767  5.905092  6.494826  6.144028  1.079995  1.527556
   H ( 15)  2.977334  4.030421  3.076202  3.076227  4.935255  5.019897
             H ( 13)   H ( 14)
   H ( 14)  1.776007
   H ( 15)  5.895778  5.219388
 
 Requested basis set is rimp2-cc-pVTZ
 There are 250 shells and 848 basis functions
 A cutoff of  1.0D-10 yielded   6211 shell pairs
 There are     45553 function pairs (     58586 Cartesian)
 Smallest overlap matrix eigenvalue = 1.09E-04

 Scale SEOQF with 1.000000e-01/1.000000e-01/1.000000e-01

 Standard Electronic Orientation quadrupole field applied
 Nucleus-field energy     =     0.0000000018 hartrees
 Guess from superposition of atomic densities
 Warning:  Energy on first SCF cycle will be non-variational
 SAD guess density has 60.000000 electrons

 -----------------------------------------------------------------------
  General SCF calculation program by
  Eric Jon Sundstrom, Paul Horn, Yuezhi Mao, Dmitri Zuev, Alec White,
  David Stuck, Shaama M.S., Shane Yost, Joonho Lee, David Small,
  Daniel Levine, Susi Lehtola, Hugh Burton, Evgeny Epifanovsky,
  Bang C. Huynh
 -----------------------------------------------------------------------
 Hartree-Fock
 A restricted SCF calculation will be
 performed using DIIS
 SCF converges when DIIS error is below 1.0e-06
 ---------------------------------------
  Cycle       Energy         DIIS error
 ---------------------------------------
    1    -632.1148528464      2.92e-02  
    2    -629.3350135617      1.94e-03  
    3    -629.4052271191      6.77e-04  
    4    -629.4126207311      3.48e-04  
    5    -629.4147220392      6.30e-05  
    6    -629.4148513858      2.57e-05  
    7    -629.4148829206      1.13e-05  
    8    -629.4148919090      5.21e-06  
    9    -629.4148934944      1.72e-06  
   10    -629.4148936920      5.74e-07  Convergence criterion met
 ---------------------------------------
 SCF time:   CPU 146.63s  wall 148.00s 

************** Final PCM Free Energy Summary **************
 G_electrostatic  =      -0.00546320 hartree =      -3.42820717 kcal/mol
 G_cavitation     =       0.00000000 hartree =       0.00000000 kcal/mol
 G_dispersion     =       0.00000000 hartree =       0.00000000 kcal/mol
 G_repulsion      =       0.00000000 hartree =       0.00000000 kcal/mol
 --------------------------------------------------
 Non-electrostatic Free Energy =       0.00000000 hartree =       0.00000000 kcal/mol
 Total                         =      -0.00546320 hartree =      -3.42820717 kcal/mol
 --------------------------------------------------
 SCF Energy (H0 + V/2)                       =    -629.41489369 
 Solute Internal Energy (H0)                 =    -629.40943050 
 Total Free Energy (H0 + V/2 + non-elec)     =    -629.41489369 hartree
                                             = -394963.80698016 kcal/mol
***********************************************************

 SCF   energy in the final basis set =     -629.4148936920
 Total energy in the final basis set =     -629.4148936920


 --------------------------------------------------------------
  Generalized many-body perturbation theory program
  by Joonho Lee, Fazle Rob, Xintian Feng, Evgeny Epifanovsky

 No regularization used 
 (reg. param. = 0.0000e+00)
  (P|Q)^-1/2 Time:  CPU 0.49 s  wall 0.49 s

 In RI-MP2 calculation: 
 # of frozen core orbitals: 11

 Components of the RIMP2 correlation energy:
        aaaa    correlation energy =        -0.1457633302 a.u.
        abab    correlation energy =        -0.8871167621 a.u.
        bbbb    correlation energy =        -0.1457633302 a.u.
        non-Brillouin singles      =        -0.0000000000 a.u.
        total same-spin energy     =        -0.2915266603 a.u.
        total opposite-spin energy =        -0.8871167621 a.u.

 Total  RIMP2   correlation energy =        -1.1786434224 a.u.
        RIMP2         total energy =      -630.5935371144 a.u.

 RI-MP2 Energy Time:  CPU 11.43 s  wall 11.48 s
 
 --------------------------------------------------------------
 
                    Orbital Energies (a.u.)
 --------------------------------------------------------------
 
 Alpha MOs
 -- Occupied --
-91.9788 -11.2809 -11.2526 -11.2474 -11.2270 -11.2267 -11.2178  -8.9785
 -6.6594  -6.6589  -6.6583  -1.1620  -1.0552  -0.9984  -0.9394  -0.8830
 -0.7429  -0.7217  -0.6485  -0.5894  -0.5742  -0.5680  -0.5579  -0.5437
 -0.5088  -0.4854  -0.4674  -0.4519  -0.3366  -0.2927
 -- Virtual --
  0.1020   0.1451   0.1532   0.1756   0.1830   0.1896   0.2066   0.2233
  0.2350   0.2428   0.2521   0.2618   0.2946   0.3228   0.3427   0.3565
  0.3817   0.3907   0.4012   0.4165   0.4396   0.4521   0.4704   0.4834
  0.4979   0.5109   0.5168   0.5331   0.5402   0.5547   0.5666   0.5868
  0.5998   0.6122   0.6131   0.6220   0.6358   0.6413   0.6416   0.6501
  0.6527   0.6618   0.6780   0.7062   0.7313   0.7409   0.7535   0.7804
  0.7964   0.8261   0.8389   0.8599   0.8700   0.8826   0.9000   0.9302
  0.9346   0.9633   1.0085   1.0198   1.0301   1.0567   1.0648   1.0715
  1.0801   1.1053   1.1214   1.1592   1.1657   1.1721   1.1915   1.2097
  1.2278   1.2326   1.2571   1.2604   1.2690   1.2808   1.3199   1.3260
  1.3506   1.3768   1.3981   1.4036   1.4232   1.4365   1.4504   1.4796
  1.4977   1.5018   1.5217   1.5281   1.5531   1.5571   1.5645   1.5795
  1.6046   1.6237   1.6692   1.6741   1.6874   1.6975   1.7166   1.7438
  1.7629   1.7788   1.8164   1.8321   1.8710   1.9072   1.9368   1.9718
  1.9987   2.0327   2.1056   2.1202   2.1821   2.1890   2.2241   2.2565
  2.2668   2.2792   2.3294   2.4086   2.4499   2.4790   2.5384   2.5539
  2.5675   2.6082   2.6165   2.6592   2.6719   2.6954   2.7076   2.7403
  2.7567   2.7607   2.7738   2.7885   2.8035   2.8392   2.8655   2.8846
  2.8930   2.9389   2.9598   2.9698   3.0057   3.0236   3.0424   3.0531
  3.0958   3.1126   3.1200   3.1275   3.1578   3.1654   3.1698   3.1851
  3.2135   3.2455   3.2649   3.2788   3.2855   3.2987   3.3035   3.3301
  3.3359   3.3779   3.3837   3.3920   3.4089   3.4167   3.4302   3.4398
  3.4500   3.4634   3.4844   3.4972   3.5052   3.5297   3.5445   3.5696
  3.5761   3.5940   3.5974   3.6258   3.6330   3.6457   3.6504   3.6781
  3.6883   3.7002   3.7190   3.7388   3.7681   3.7849   3.7899   3.8024
  3.8197   3.8336   3.8663   3.8733   3.8885   3.9208   3.9478   3.9715
  3.9760   3.9800   4.0083   4.0150   4.0681   4.0785   4.1047   4.1137
  4.1311   4.1527   4.1553   4.1991   4.2161   4.2299   4.2505   4.2518
  4.2796   4.2888   4.3210   4.3402   4.3499   4.3788   4.3858   4.4027
  4.4063   4.4283   4.4419   4.4615   4.4827   4.5081   4.5569   4.5833
  4.6027   4.6187   4.6430   4.6625   4.7191   4.7388   4.7515   4.7861
  4.8148   4.8353   4.8618   4.8866   4.9169   4.9489   5.0726   5.1029
  5.1196   5.1320   5.1845   5.1865   5.2207   5.2608   5.2841   5.3242
  5.3690   5.4043   5.4123   5.4385   5.4534   5.5097   5.5508   5.5608
  5.6081   5.6250   5.6334   5.6800   5.7084   5.8242   5.8340   5.8564
  5.9001   6.0314   6.0561   6.1285   6.2281   6.2449   6.2888   6.3677
  6.4527   6.4601   9.1456  11.4367  12.8970  13.8794  14.1725  14.3303
 --------------------------------------------------------------
 
          Ground-State Mulliken Net Atomic Charges

     Atom                 Charge (a.u.)
  ----------------------------------------
      1 C                     0.045625
      2 C                    -0.272669
      3 C                     0.037567
      4 H                     0.174899
      5 C                    -0.267751
      6 S                     0.002278
      7 C                    -0.272303
      8 H                     0.101314
      9 H                     0.107406
     10 H                     0.106585
     11 C                    -0.389340
     12 H                     0.144802
     13 H                     0.151757
     14 H                     0.137207
     15 H                     0.192623
  ----------------------------------------
  Sum of atomic charges =     0.000000

 -----------------------------------------------------------------
                    Cartesian Multipole Moments
 -----------------------------------------------------------------
    Charge (ESU x 10^10)
                -0.0000
    Dipole Moment (Debye)
         X       0.9869      Y      -0.4493      Z       1.8642
       Tot       2.1566
    Quadrupole Moments (Debye-Ang)
        XX     -53.4265     XY       1.7228     YY     -43.3184
        XZ      -0.2400     YZ      -0.7489     ZZ     -48.5516
    Octopole Moments (Debye-Ang^2)
       XXX     -37.6195    XXY     -26.9115    XYY      -4.5851
       YYY     -76.6597    XXZ      -2.1903    XYZ       0.4269
       YYZ      -1.8217    XZZ     -10.6661    YZZ     -23.4446
       ZZZ       0.5184
    Hexadecapole Moments (Debye-Ang^3)
      XXXX    -144.6998   XXXY    -101.3030   XXYY    -155.1532
      XYYY     -89.8372   YYYY    -752.2432   XXXZ     -30.5690
      XXYZ     -29.6056   XYYZ     -18.1158   YYYZ    -100.3897
      XXZZ    -109.9556   XYZZ     -27.6047   YYZZ    -203.1705
      XZZZ     -34.3235   YZZZ     -93.2276   ZZZZ    -483.3763
 -----------------------------------------------------------------
 Total job time:  160.36s(wall), 158.43s(cpu) 
 Sun Jul 10 10:20:48 2022

        *************************************************************
        *                                                           *
        *  Thank you very much for using Q-Chem.  Have a nice day.  *
        *                                                           *
        *************************************************************


remove work dirs ./qchem1522929.0 -- ./qchem1522929.-1
rm -rf ./qchem1522929
You are running Q-Chem version: 5.4.0

#
# job setting
#
local host:  exp-13-53
current dir: /expanse/lustre/scratch/theleonzhang/temp_project/Hydrogenated_Impropers_Test
input file:  Methylthiophene_Phi_20_Theta_220_Methylthiophene_Hydrogenated_Improper_Alternate.qcin
output file: 
nprocs     : 0
nthreads   : 1
#
# qchem installation setting
#
QC:          /cm/shared/apps/spack/cpu/opt/spack/linux-centos8-zen2/gcc-10.2.0/qchem-5.4-akfmr7b3t57bfs6qan3padb2wnb2i7cl
QCAUX:       /cm/shared/apps/spack/cpu/opt/spack/linux-centos8-zen2/gcc-10.2.0/qchem-5.4-akfmr7b3t57bfs6qan3padb2wnb2i7cl/qcaux
QCPROG:      /cm/shared/apps/spack/cpu/opt/spack/linux-centos8-zen2/gcc-10.2.0/qchem-5.4-akfmr7b3t57bfs6qan3padb2wnb2i7cl/exe/qcprog.exe_s
QCPROG_S:    /cm/shared/apps/spack/cpu/opt/spack/linux-centos8-zen2/gcc-10.2.0/qchem-5.4-akfmr7b3t57bfs6qan3padb2wnb2i7cl/exe/qcprog.exe_s
PARALLEL:    -DSERIAL
QCMPI:       mpich
#
# qchem directory setting
#
qcrun:       qchem760692
QCSCRATCH:   .
QCLOCALSCR:  
QCTMPDIR:    .
QCFILEPREF:  ./qchem760692
QCSAVEDIR:   
workdirs:    ./qchem760692
workdir0:    ./qchem760692
partmpdirs =  
#
# parallel setting
#
QCRSH:           ssh
QCMPI:           mpich
QCMPIRUN:        /cm/shared/apps/spack/cpu/opt/spack/linux-centos8-zen2/gcc-10.2.0/qchem-5.4-akfmr7b3t57bfs6qan3padb2wnb2i7cl/bin/mpi/mpirun_qchem
QCMACHINEFILE:   ./qchem760692/hostfile

#
# env setting
#
exported envs:   QC QCAUX QCSCRATCH QCRUNNAME QCFILEPREF QCPROG QCPROG_S GUIFILE

Running Job 1 of 1 Methylthiophene_Phi_20_Theta_220_Methylthiophene_Hydrogenated_Improper_Alternate.qcin
qchem Methylthiophene_Phi_20_Theta_220_Methylthiophene_Hydrogenated_Improper_Alternate.qcin_760692.0 ./qchem760692/ 0
/cm/shared/apps/spack/cpu/opt/spack/linux-centos8-zen2/gcc-10.2.0/qchem-5.4-akfmr7b3t57bfs6qan3padb2wnb2i7cl/exe/qcprog.exe_s Methylthiophene_Phi_20_Theta_220_Methylthiophene_Hydrogenated_Improper_Alternate.qcin_760692.0 ./qchem760692/
                  Welcome to Q-Chem
     A Quantum Leap Into The Future Of Chemistry


 Q-Chem 5.4, Q-Chem, Inc., Pleasanton, CA (2021)

 License issued to: University of California, San Diego (site)

 E. Epifanovsky,  A. T. B. Gilbert,  Xintian Feng,  Joonho Lee,  Yuezhi Mao,  
 N. Mardirossian,  P. Pokhilko,  A. White,  M. Wormit,  M. P. Coons,  
 A. L. Dempwolff,  Zhengting Gan,  D. Hait,  P. R. Horn,  L. D. Jacobson,  
 I. Kaliman,  J. Kussmann,  A. W. Lange,  Ka Un Lao,  D. S. Levine,  Jie Liu,  
 S. C. McKenzie,  A. F. Morrison,  K. Nanda,  F. Plasser,  D. R. Rehn,  
 M. L. Vidal,  Zhi-Qiang You,  Ying Zhu,  B. Alam,  B. Albrecht,  
 A. Aldossary,  E. Alguire,  J. H. Andersen,  D. Barton,  K. Begam,  A. Behn,  
 Y. A. Bernard,  E. J. Berquist,  H. Burton,  A. Carreras,  K. Carter-Fenk,  
 R. Chakraborty,  A. D. Chien,  K. D. Closser,  V. Cofer-Shabica,  
 S. Dasgupta,  Jia Deng,  M. de Wergifosse,  M. Diedenhofen,  Hainam Do,  
 S. Ehlert,  Po-Tung Fang,  S. Fatehi,  Qingguo Feng,  J. Gayvert,  
 Qinghui Ge,  G. Gidofalvi,  M. Goldey,  J. Gomes,  C. Gonzalez-Espinoza,  
 S. Gulania,  A. Gunina,  M. W. D. Hanson-Heine,  P. H. P. Harbach,  
 A. W. Hauser,  M. F. Herbst,  M. Hernandez Vera,  M. Hodecker,  
 Z. C. Holden,  S. Houck,  Xunkun Huang,  Kerwin Hui,  B. C. Huynh,  
 M. Ivanov,  Hyunjun Ji,  Hanjie Jiang,  B. Kaduk,  S. Kaehler,  
 K. Khistyaev,  Jaehoon Kim,  P. Klunzinger,  Z. Koczor-Benda,  
 Joong Hoon Koh,  D. Kosenkov,  L. Koulias,  T. Kowalczyk,  C. M. Krauter,  
 K. Kue,  A. Kunitsa,  T. Kus,  A. Landau,  K. V. Lawler,  D. Lefrancois,  
 S. Lehtola,  Rain Li,  Yi-Pei Li,  Jiashu Liang,  M. Liebenthal,  
 Hung-Hsuan Lin,  You-Sheng Lin,  Fenglai Liu,  Kuan-Yu Liu,  
 M. Loipersberger,  A. Luenser,  A. Manjanath,  P. Manohar,  E. Mansoor,  
 S. F. Manzer,  Shan-Ping Mao,  A. V. Marenich,  T. Markovich,  S. Mason,  
 S. A. Maurer,  P. F. McLaughlin,  M. F. S. J. Menger,  J.-M. Mewes,  
 S. A. Mewes,  P. Morgante,  J. W. Mullinax,  T. S. Nguyen-Beck,  
 K. J. Oosterbaan,  G. Paran,  Alexander C. Paul,  Suranjan K. Paul,  
 F. Pavosevic,  Zheng Pei,  S. Prager,  E. I. Proynov,  E. Ramos,  B. Rana,  
 A. E. Rask,  A. Rettig,  R. M. Richard,  F. Rob,  E. Rossomme,  T. Scheele,  
 M. Scheurer,  M. Schneider,  N. Sergueev,  S. M. Sharada,  W. Skomorowski,  
 D. W. Small,  C. J. Stein,  Yu-Chuan Su,  E. J. Sundstrom,  Zhen Tao,  
 J. Thirman,  T. Tsuchimochi,  N. M. Tubman,  S. P. Veccham,  O. Vydrov,  
 J. Wenzel,  J. Witte,  A. Yamada,  Kun Yao,  S. Yeganeh,  S. R. Yost,  
 A. Zech,  Igor Ying Zhang,  Xing Zhang,  Yu Zhang,  D. Zuev,  
 A. Aspuru-Guzik,  A. T. Bell,  N. A. Besley,  K. B. Bravaya,  B. R. Brooks,  
 D. Casanova,  Jeng-Da Chai,  S. Coriani,  C. J. Cramer,  
 A. E. DePrince, III,  R. A. DiStasio Jr.,  A. Dreuw,  B. D. Dunietz,  
 T. R. Furlani,  W. A. Goddard III,  S. Grimme,  S. Hammes-Schiffer,  
 T. Head-Gordon,  W. J. Hehre,  Chao-Ping Hsu,  T.-C. Jagau,  Yousung Jung,  
 A. Klamt,  Jing Kong,  D. S. Lambrecht,  WanZhen Liang,  N. J. Mayhall,  
 C. W. McCurdy,  J. B. Neaton,  C. Ochsenfeld,  J. A. Parkhill,  R. Peverati,  
 V. A. Rassolov,  Yihan Shao,  L. V. Slipchenko,  T. Stauch,  R. P. Steele,  
 J. E. Subotnik,  A. J. W. Thom,  A. Tkatchenko,  D. G. Truhlar,  
 T. Van Voorhis,  T. A. Wesolowski,  K. B. Whaley,  H. L. Woodcock III,  
 P. M. Zimmerman,  S. Faraji,  P. M. W. Gill,  M. Head-Gordon,  
 J. M. Herbert,  A. I. Krylov

 Contributors to earlier versions of Q-Chem not listed above: 
 R. D. Adamson,  B. Austin,  R. Baer,  J. Baker,  G. J. O. Beran,  
 K. Brandhorst,  S. T. Brown,  E. F. C. Byrd,  A. K. Chakraborty,  
 G. K. L. Chan,  Chun-Min Chang,  Yunqing Chen,  C.-L. Cheng,  
 Siu Hung Chien,  D. M. Chipman,  D. L. Crittenden,  H. Dachsel,  
 R. J. Doerksen,  A. D. Dutoi,  R. G. Edgar,  J. Fosso-Tande,  
 L. Fusti-Molnar,  D. Ghosh,  A. Ghysels,  A. Golubeva-Zadorozhnaya,  
 J. Gonthier,  M. S. Gordon,  S. R. Gwaltney,  G. Hawkins,  J. E. Herr,  
 A. Heyden,  S. Hirata,  E. G. Hohenstein,  G. Kedziora,  F. J. Keil,  
 C. Kelley,  Jihan Kim,  R. A. King,  R. Z. Khaliullin,  P. P. Korambath,  
 W. Kurlancheek,  A. Laurent,  A. M. Lee,  M. S. Lee,  S. V. Levchenko,  
 Ching Yeh Lin,  D. Liotard,  E. Livshits,  R. C. Lochan,  I. Lotan,  
 L. A. Martinez-Martinez,  P. E. Maslen,  N. Nair,  D. P. O'Neill,  
 D. Neuhauser,  E. Neuscamman,  C. M. Oana,  R. Olivares-Amaya,  R. Olson,  
 T. M. Perrine,  B. Peters,  P. A. Pieniazek,  A. Prociuk,  Y. M. Rhee,  
 J. Ritchie,  M. A. Rohrdanz,  E. Rosta,  N. J. Russ,  H. F. Schaefer III,  
 M. W. Schmidt,  N. E. Schultz,  S. Sharma,  N. Shenvi,  C. D. Sherrill,  
 A. C. Simmonett,  A. Sodt,  T. Stein,  D. Stuck,  K. S. Thanthiriwatte,  
 V. Vanovschi,  L. Vogt,  Tao Wang,  A. Warshel,  M. A. Watson,  
 C. F. Williams,  Q. Wu,  X. Xu,  Jun Yang,  W. Zhang,  Yan Zhao

 Please cite Q-Chem as follows:
 Y. Shao et al., Mol. Phys. 113, 184-215 (2015)
 DOI: 10.1080/00268976.2014.952696

 Q-Chem 5.4.0 for Intel X86 EM64T Linux

 Parts of Q-Chem use Armadillo 9.800.1 (Horizon Scraper).
 http://arma.sourceforge.net/

 Q-Chem begins on Sun Jul 10 10:55:09 2022  

 Host: 
0

     Scratch files written to ./qchem760692//
 May1621 |scratch|qcdevops|jenkins|workspace|build_RNUM    
 Processing $rem in /cm/shared/apps/spack/cpu/opt/spack/linux-centos8-zen2/gcc-10.2.0/qchem-5.4-akfmr7b3t57bfs6qan3padb2wnb2i7cl/config/preferences:
 Processing $rem in /home/theleonzhang/.qchemrc:
 Symmetry turned off for PCM/SM12/SMD calculation
 Core orbitals will be frozen

 Checking the input file for inconsistencies... 	...done.

--------------------------------------------------------------
User input:
--------------------------------------------------------------
$molecule
0 1
C	-0.236097	-0.535397	0.012353
C	0.059303	0.276103	1.111753
C	0.532603	1.576503	0.789053
H	-0.066797	-0.070397	2.148453
C	0.608103	1.783903	-0.600147
S	0.086203	0.350203	-1.474447
C	0.904703	2.598703	1.826953
H	0.759103	2.198703	2.849053
H	0.289903	3.518703	1.738553
H	1.967103	2.908303	1.738553
C	-0.236097	-1.976097	0.012353
H	0.591203	-1.975797	0.706653
H	-0.762697	-2.679897	0.639853
H	0.372703	-2.494997	-0.713247
H	0.932803	2.675903	-1.149247
$end

$rem
JOBTYPE		SP
EXCHANGE	HF
CORRELATION	pRIMP2
BASIS		cc-pvtz
METHOD		rimp2
AUX_BASIS	rimp2-cc-pvtz
SOLVENT_METHOD	PCM
PURECART	11111
SYMMETRY	false
MEM_TOTAL	110000
SCF_CONVERGENCE = 6
THRESH=10
$end



$solvent
dielectric 4.90
$end
--------------------------------------------------------------
 ----------------------------------------------------------------
             Standard Nuclear Orientation (Angstroms)
    I     Atom           X                Y                Z
 ----------------------------------------------------------------
    1      C      -0.2360970000    -0.5353970000     0.0123530000
    2      C       0.0593030000     0.2761030000     1.1117530000
    3      C       0.5326030000     1.5765030000     0.7890530000
    4      H      -0.0667970000    -0.0703970000     2.1484530000
    5      C       0.6081030000     1.7839030000    -0.6001470000
    6      S       0.0862030000     0.3502030000    -1.4744470000
    7      C       0.9047030000     2.5987030000     1.8269530000
    8      H       0.7591030000     2.1987030000     2.8490530000
    9      H       0.2899030000     3.5187030000     1.7385530000
   10      H       1.9671030000     2.9083030000     1.7385530000
   11      C      -0.2360970000    -1.9760970000     0.0123530000
   12      H       0.5912030000    -1.9757970000     0.7066530000
   13      H      -0.7626970000    -2.6798970000     0.6398530000
   14      H       0.3727030000    -2.4949970000    -0.7132470000
   15      H       0.9328030000     2.6759030000    -1.1492470000
 ----------------------------------------------------------------
 Nuclear Repulsion Energy =         345.29143727 hartrees
 There are       30 alpha and       30 beta electrons

 Q-Chem warning in module forms1/BasisType.C, line 2236:

 You are not using the predefined 5D/6D in this basis set.

 Requested basis set is cc-pVTZ
 There are 120 shells and 326 basis functions

 Total QAlloc Memory Limit 110000 MB
 Mega-Array Size       188 MB
 MEM_STATIC part       192 MB
 Discretize the solute cavity surface with Lebedev spheres
	Using 110 Lebedev grid points for each H atom
	Using 194 Lebedev grid points for other atoms
	Atomic van der Waals radii will be scaled by 1.20
 Remove points where switching function is < 1.0e-08
 Keep 1067 surface tesserae and discard 1171 interior tesserae
 Molecular Surface Area = 158.148 Angst**2

                       Distance Matrix (Angstroms)
             C (  1)   C (  2)   C (  3)   H (  4)   C (  5)   S (  6)
   C (  2)  1.398025
   C (  3)  2.377874  1.420981
   H (  4)  2.192672  1.100323  2.218001
   C (  5)  2.543026  2.346326  1.406624  3.383596
   S (  6)  1.760324  2.587401  2.612760  3.650441  1.758487
   C (  7)  3.796944  2.573069  1.503525  2.858543  2.577341  4.077369
   H (  8)  4.063569  2.684087  2.163801  2.514312  3.477332  4.749989
   H (  9)  4.437586  3.310666  2.175453  3.629999  2.929215  4.517107
   H ( 10)  4.437671  3.310749  2.175553  3.630072  2.929279  4.517193
   C ( 11)  1.440700  2.523558  3.716871  2.867626  3.901978  2.779590
   H ( 12)  1.800342  2.349059  3.553739  2.478366  3.980371  3.228389
   H ( 13)  2.295636  3.104241  4.451629  3.093484  4.831377  3.791095
   H ( 14)  2.176503  3.332843  4.342762  3.776397  4.286862  2.959167
   H ( 15)  3.609444  3.410889  2.264033  4.406381  1.096633  2.496271
             C (  7)   H (  8)   H (  9)   H ( 10)   C ( 11)   H ( 12)
   H (  8)  1.107198
   H (  9)  1.110042  1.787669
   H ( 10)  1.110117  1.787738  1.784822
   C ( 11)  5.052029  5.144535  5.783534  5.629496
   H ( 12)  4.720106  4.695159  5.598672  5.178064  1.080036
   H ( 13)  5.661541  5.567511  6.382613  6.315610  1.079999  1.527503
   H ( 14)  5.716767  5.905092  6.494826  6.144028  1.079995  1.527556
   H ( 15)  2.977334  4.030421  3.076202  3.076227  4.935255  5.019897
             H ( 13)   H ( 14)
   H ( 14)  1.776007
   H ( 15)  5.895778  5.219388
 
 Requested basis set is rimp2-cc-pVTZ
 There are 250 shells and 848 basis functions
 A cutoff of  1.0D-10 yielded   6211 shell pairs
 There are     45553 function pairs (     58586 Cartesian)
 Smallest overlap matrix eigenvalue = 1.09E-04

 Scale SEOQF with 1.000000e-01/1.000000e-01/1.000000e-01

 Standard Electronic Orientation quadrupole field applied
 Nucleus-field energy     =     0.0000000018 hartrees
 Guess from superposition of atomic densities
 Warning:  Energy on first SCF cycle will be non-variational
 SAD guess density has 60.000000 electrons

 -----------------------------------------------------------------------
  General SCF calculation program by
  Eric Jon Sundstrom, Paul Horn, Yuezhi Mao, Dmitri Zuev, Alec White,
  David Stuck, Shaama M.S., Shane Yost, Joonho Lee, David Small,
  Daniel Levine, Susi Lehtola, Hugh Burton, Evgeny Epifanovsky,
  Bang C. Huynh
 -----------------------------------------------------------------------
 Hartree-Fock
 A restricted SCF calculation will be
 performed using DIIS
 SCF converges when DIIS error is below 1.0e-06
 ---------------------------------------
  Cycle       Energy         DIIS error
 ---------------------------------------
    1    -632.1148528464      2.92e-02  
    2    -629.3350135617      1.94e-03  
    3    -629.4052271191      6.77e-04  
    4    -629.4126207311      3.48e-04  
    5    -629.4147220392      6.30e-05  
    6    -629.4148513858      2.57e-05  
    7    -629.4148829206      1.13e-05  
    8    -629.4148919090      5.21e-06  
    9    -629.4148934944      1.72e-06  
   10    -629.4148936920      5.74e-07  Convergence criterion met
 ---------------------------------------
 SCF time:   CPU 144.42s  wall 145.00s 

************** Final PCM Free Energy Summary **************
 G_electrostatic  =      -0.00546320 hartree =      -3.42820717 kcal/mol
 G_cavitation     =       0.00000000 hartree =       0.00000000 kcal/mol
 G_dispersion     =       0.00000000 hartree =       0.00000000 kcal/mol
 G_repulsion      =       0.00000000 hartree =       0.00000000 kcal/mol
 --------------------------------------------------
 Non-electrostatic Free Energy =       0.00000000 hartree =       0.00000000 kcal/mol
 Total                         =      -0.00546320 hartree =      -3.42820717 kcal/mol
 --------------------------------------------------
 SCF Energy (H0 + V/2)                       =    -629.41489369 
 Solute Internal Energy (H0)                 =    -629.40943050 
 Total Free Energy (H0 + V/2 + non-elec)     =    -629.41489369 hartree
                                             = -394963.80698016 kcal/mol
***********************************************************

 SCF   energy in the final basis set =     -629.4148936920
 Total energy in the final basis set =     -629.4148936920


 --------------------------------------------------------------
  Generalized many-body perturbation theory program
  by Joonho Lee, Fazle Rob, Xintian Feng, Evgeny Epifanovsky

 No regularization used 
 (reg. param. = 0.0000e+00)
  (P|Q)^-1/2 Time:  CPU 0.48 s  wall 0.48 s

 In RI-MP2 calculation: 
 # of frozen core orbitals: 11

 Components of the RIMP2 correlation energy:
        aaaa    correlation energy =        -0.1457633302 a.u.
        abab    correlation energy =        -0.8871167621 a.u.
        bbbb    correlation energy =        -0.1457633302 a.u.
        non-Brillouin singles      =        -0.0000000000 a.u.
        total same-spin energy     =        -0.2915266603 a.u.
        total opposite-spin energy =        -0.8871167621 a.u.

 Total  RIMP2   correlation energy =        -1.1786434224 a.u.
        RIMP2         total energy =      -630.5935371144 a.u.

 RI-MP2 Energy Time:  CPU 11.07 s  wall 11.10 s
 
 --------------------------------------------------------------
 
                    Orbital Energies (a.u.)
 --------------------------------------------------------------
 
 Alpha MOs
 -- Occupied --
-91.9788 -11.2809 -11.2526 -11.2474 -11.2270 -11.2267 -11.2178  -8.9785
 -6.6594  -6.6589  -6.6583  -1.1620  -1.0552  -0.9984  -0.9394  -0.8830
 -0.7429  -0.7217  -0.6485  -0.5894  -0.5742  -0.5680  -0.5579  -0.5437
 -0.5088  -0.4854  -0.4674  -0.4519  -0.3366  -0.2927
 -- Virtual --
  0.1020   0.1451   0.1532   0.1756   0.1830   0.1896   0.2066   0.2233
  0.2350   0.2428   0.2521   0.2618   0.2946   0.3228   0.3427   0.3565
  0.3817   0.3907   0.4012   0.4165   0.4396   0.4521   0.4704   0.4834
  0.4979   0.5109   0.5168   0.5331   0.5402   0.5547   0.5666   0.5868
  0.5998   0.6122   0.6131   0.6220   0.6358   0.6413   0.6416   0.6501
  0.6527   0.6618   0.6780   0.7062   0.7313   0.7409   0.7535   0.7804
  0.7964   0.8261   0.8389   0.8599   0.8700   0.8826   0.9000   0.9302
  0.9346   0.9633   1.0085   1.0198   1.0301   1.0567   1.0648   1.0715
  1.0801   1.1053   1.1214   1.1592   1.1657   1.1721   1.1915   1.2097
  1.2278   1.2326   1.2571   1.2604   1.2690   1.2808   1.3199   1.3260
  1.3506   1.3768   1.3981   1.4036   1.4232   1.4365   1.4504   1.4796
  1.4977   1.5018   1.5217   1.5281   1.5531   1.5571   1.5645   1.5795
  1.6046   1.6237   1.6692   1.6741   1.6874   1.6975   1.7166   1.7438
  1.7629   1.7788   1.8164   1.8321   1.8710   1.9072   1.9368   1.9718
  1.9987   2.0327   2.1056   2.1202   2.1821   2.1890   2.2241   2.2565
  2.2668   2.2792   2.3294   2.4086   2.4499   2.4790   2.5384   2.5539
  2.5675   2.6082   2.6165   2.6592   2.6719   2.6954   2.7076   2.7403
  2.7567   2.7607   2.7738   2.7885   2.8035   2.8392   2.8655   2.8846
  2.8930   2.9389   2.9598   2.9698   3.0057   3.0236   3.0424   3.0531
  3.0958   3.1126   3.1200   3.1275   3.1578   3.1654   3.1698   3.1851
  3.2135   3.2455   3.2649   3.2788   3.2855   3.2987   3.3035   3.3301
  3.3359   3.3779   3.3837   3.3920   3.4089   3.4167   3.4302   3.4398
  3.4500   3.4634   3.4844   3.4972   3.5052   3.5297   3.5445   3.5696
  3.5761   3.5940   3.5974   3.6258   3.6330   3.6457   3.6504   3.6781
  3.6883   3.7002   3.7190   3.7388   3.7681   3.7849   3.7899   3.8024
  3.8197   3.8336   3.8663   3.8733   3.8885   3.9208   3.9478   3.9715
  3.9760   3.9800   4.0083   4.0150   4.0681   4.0785   4.1047   4.1137
  4.1311   4.1527   4.1553   4.1991   4.2161   4.2299   4.2505   4.2518
  4.2796   4.2888   4.3210   4.3402   4.3499   4.3788   4.3858   4.4027
  4.4063   4.4283   4.4419   4.4615   4.4827   4.5081   4.5569   4.5833
  4.6027   4.6187   4.6430   4.6625   4.7191   4.7388   4.7515   4.7861
  4.8148   4.8353   4.8618   4.8866   4.9169   4.9489   5.0726   5.1029
  5.1196   5.1320   5.1845   5.1865   5.2207   5.2608   5.2841   5.3242
  5.3690   5.4043   5.4123   5.4385   5.4534   5.5097   5.5508   5.5608
  5.6081   5.6250   5.6334   5.6800   5.7084   5.8242   5.8340   5.8564
  5.9001   6.0314   6.0561   6.1285   6.2281   6.2449   6.2888   6.3677
  6.4527   6.4601   9.1456  11.4367  12.8970  13.8794  14.1725  14.3303
 --------------------------------------------------------------
 
          Ground-State Mulliken Net Atomic Charges

     Atom                 Charge (a.u.)
  ----------------------------------------
      1 C                     0.045625
      2 C                    -0.272669
      3 C                     0.037567
      4 H                     0.174899
      5 C                    -0.267751
      6 S                     0.002278
      7 C                    -0.272303
      8 H                     0.101314
      9 H                     0.107406
     10 H                     0.106585
     11 C                    -0.389340
     12 H                     0.144802
     13 H                     0.151757
     14 H                     0.137207
     15 H                     0.192623
  ----------------------------------------
  Sum of atomic charges =     0.000000

 -----------------------------------------------------------------
                    Cartesian Multipole Moments
 -----------------------------------------------------------------
    Charge (ESU x 10^10)
                -0.0000
    Dipole Moment (Debye)
         X       0.9869      Y      -0.4493      Z       1.8642
       Tot       2.1566
    Quadrupole Moments (Debye-Ang)
        XX     -53.4265     XY       1.7228     YY     -43.3184
        XZ      -0.2400     YZ      -0.7489     ZZ     -48.5516
    Octopole Moments (Debye-Ang^2)
       XXX     -37.6195    XXY     -26.9115    XYY      -4.5851
       YYY     -76.6597    XXZ      -2.1903    XYZ       0.4269
       YYZ      -1.8217    XZZ     -10.6661    YZZ     -23.4446
       ZZZ       0.5184
    Hexadecapole Moments (Debye-Ang^3)
      XXXX    -144.6998   XXXY    -101.3030   XXYY    -155.1532
      XYYY     -89.8372   YYYY    -752.2432   XXXZ     -30.5690
      XXYZ     -29.6056   XYYZ     -18.1158   YYYZ    -100.3897
      XXZZ    -109.9556   XYZZ     -27.6047   YYZZ    -203.1705
      XZZZ     -34.3235   YZZZ     -93.2276   ZZZZ    -483.3763
 -----------------------------------------------------------------
 Total job time:  156.64s(wall), 155.84s(cpu) 
 Sun Jul 10 10:57:45 2022

        *************************************************************
        *                                                           *
        *  Thank you very much for using Q-Chem.  Have a nice day.  *
        *                                                           *
        *************************************************************


remove work dirs ./qchem760692.0 -- ./qchem760692.-1
rm -rf ./qchem760692
