You are running Q-Chem version: 5.4.0

#
# job setting
#
local host:  exp-3-21
current dir: /expanse/lustre/scratch/theleonzhang/temp_project/Hydrogenated_Impropers_Test
input file:  Methylthiophene_Phi_10_Theta_180_Methylthiophene_Hydrogenated_Improper.qcin
output file: 
nprocs     : 0
nthreads   : 1
#
# qchem installation setting
#
QC:          /cm/shared/apps/spack/cpu/opt/spack/linux-centos8-zen2/gcc-10.2.0/qchem-5.4-akfmr7b3t57bfs6qan3padb2wnb2i7cl
QCAUX:       /cm/shared/apps/spack/cpu/opt/spack/linux-centos8-zen2/gcc-10.2.0/qchem-5.4-akfmr7b3t57bfs6qan3padb2wnb2i7cl/qcaux
QCPROG:      /cm/shared/apps/spack/cpu/opt/spack/linux-centos8-zen2/gcc-10.2.0/qchem-5.4-akfmr7b3t57bfs6qan3padb2wnb2i7cl/exe/qcprog.exe_s
QCPROG_S:    /cm/shared/apps/spack/cpu/opt/spack/linux-centos8-zen2/gcc-10.2.0/qchem-5.4-akfmr7b3t57bfs6qan3padb2wnb2i7cl/exe/qcprog.exe_s
PARALLEL:    -DSERIAL
QCMPI:       mpich
#
# qchem directory setting
#
qcrun:       qchem1402511
QCSCRATCH:   .
QCLOCALSCR:  
QCTMPDIR:    .
QCFILEPREF:  ./qchem1402511
QCSAVEDIR:   
workdirs:    ./qchem1402511
workdir0:    ./qchem1402511
partmpdirs =  
#
# parallel setting
#
QCRSH:           ssh
QCMPI:           mpich
QCMPIRUN:        /cm/shared/apps/spack/cpu/opt/spack/linux-centos8-zen2/gcc-10.2.0/qchem-5.4-akfmr7b3t57bfs6qan3padb2wnb2i7cl/bin/mpi/mpirun_qchem
QCMACHINEFILE:   ./qchem1402511/hostfile

#
# env setting
#
exported envs:   QC QCAUX QCSCRATCH QCRUNNAME QCFILEPREF QCPROG QCPROG_S GUIFILE

Running Job 1 of 1 Methylthiophene_Phi_10_Theta_180_Methylthiophene_Hydrogenated_Improper.qcin
qchem Methylthiophene_Phi_10_Theta_180_Methylthiophene_Hydrogenated_Improper.qcin_1402511.0 ./qchem1402511/ 0
/cm/shared/apps/spack/cpu/opt/spack/linux-centos8-zen2/gcc-10.2.0/qchem-5.4-akfmr7b3t57bfs6qan3padb2wnb2i7cl/exe/qcprog.exe_s Methylthiophene_Phi_10_Theta_180_Methylthiophene_Hydrogenated_Improper.qcin_1402511.0 ./qchem1402511/
                  Welcome to Q-Chem
     A Quantum Leap Into The Future Of Chemistry


 Q-Chem 5.4, Q-Chem, Inc., Pleasanton, CA (2021)

 License issued to: University of California, San Diego (site)

 E. Epifanovsky,  A. T. B. Gilbert,  Xintian Feng,  Joonho Lee,  Yuezhi Mao,  
 N. Mardirossian,  P. Pokhilko,  A. White,  M. Wormit,  M. P. Coons,  
 A. L. Dempwolff,  Zhengting Gan,  D. Hait,  P. R. Horn,  L. D. Jacobson,  
 I. Kaliman,  J. Kussmann,  A. W. Lange,  Ka Un Lao,  D. S. Levine,  Jie Liu,  
 S. C. McKenzie,  A. F. Morrison,  K. Nanda,  F. Plasser,  D. R. Rehn,  
 M. L. Vidal,  Zhi-Qiang You,  Ying Zhu,  B. Alam,  B. Albrecht,  
 A. Aldossary,  E. Alguire,  J. H. Andersen,  D. Barton,  K. Begam,  A. Behn,  
 Y. A. Bernard,  E. J. Berquist,  H. Burton,  A. Carreras,  K. Carter-Fenk,  
 R. Chakraborty,  A. D. Chien,  K. D. Closser,  V. Cofer-Shabica,  
 S. Dasgupta,  Jia Deng,  M. de Wergifosse,  M. Diedenhofen,  Hainam Do,  
 S. Ehlert,  Po-Tung Fang,  S. Fatehi,  Qingguo Feng,  J. Gayvert,  
 Qinghui Ge,  G. Gidofalvi,  M. Goldey,  J. Gomes,  C. Gonzalez-Espinoza,  
 S. Gulania,  A. Gunina,  M. W. D. Hanson-Heine,  P. H. P. Harbach,  
 A. W. Hauser,  M. F. Herbst,  M. Hernandez Vera,  M. Hodecker,  
 Z. C. Holden,  S. Houck,  Xunkun Huang,  Kerwin Hui,  B. C. Huynh,  
 M. Ivanov,  Hyunjun Ji,  Hanjie Jiang,  B. Kaduk,  S. Kaehler,  
 K. Khistyaev,  Jaehoon Kim,  P. Klunzinger,  Z. Koczor-Benda,  
 Joong Hoon Koh,  D. Kosenkov,  L. Koulias,  T. Kowalczyk,  C. M. Krauter,  
 K. Kue,  A. Kunitsa,  T. Kus,  A. Landau,  K. V. Lawler,  D. Lefrancois,  
 S. Lehtola,  Rain Li,  Yi-Pei Li,  Jiashu Liang,  M. Liebenthal,  
 Hung-Hsuan Lin,  You-Sheng Lin,  Fenglai Liu,  Kuan-Yu Liu,  
 M. Loipersberger,  A. Luenser,  A. Manjanath,  P. Manohar,  E. Mansoor,  
 S. F. Manzer,  Shan-Ping Mao,  A. V. Marenich,  T. Markovich,  S. Mason,  
 S. A. Maurer,  P. F. McLaughlin,  M. F. S. J. Menger,  J.-M. Mewes,  
 S. A. Mewes,  P. Morgante,  J. W. Mullinax,  T. S. Nguyen-Beck,  
 K. J. Oosterbaan,  G. Paran,  Alexander C. Paul,  Suranjan K. Paul,  
 F. Pavosevic,  Zheng Pei,  S. Prager,  E. I. Proynov,  E. Ramos,  B. Rana,  
 A. E. Rask,  A. Rettig,  R. M. Richard,  F. Rob,  E. Rossomme,  T. Scheele,  
 M. Scheurer,  M. Schneider,  N. Sergueev,  S. M. Sharada,  W. Skomorowski,  
 D. W. Small,  C. J. Stein,  Yu-Chuan Su,  E. J. Sundstrom,  Zhen Tao,  
 J. Thirman,  T. Tsuchimochi,  N. M. Tubman,  S. P. Veccham,  O. Vydrov,  
 J. Wenzel,  J. Witte,  A. Yamada,  Kun Yao,  S. Yeganeh,  S. R. Yost,  
 A. Zech,  Igor Ying Zhang,  Xing Zhang,  Yu Zhang,  D. Zuev,  
 A. Aspuru-Guzik,  A. T. Bell,  N. A. Besley,  K. B. Bravaya,  B. R. Brooks,  
 D. Casanova,  Jeng-Da Chai,  S. Coriani,  C. J. Cramer,  
 A. E. DePrince, III,  R. A. DiStasio Jr.,  A. Dreuw,  B. D. Dunietz,  
 T. R. Furlani,  W. A. Goddard III,  S. Grimme,  S. Hammes-Schiffer,  
 T. Head-Gordon,  W. J. Hehre,  Chao-Ping Hsu,  T.-C. Jagau,  Yousung Jung,  
 A. Klamt,  Jing Kong,  D. S. Lambrecht,  WanZhen Liang,  N. J. Mayhall,  
 C. W. McCurdy,  J. B. Neaton,  C. Ochsenfeld,  J. A. Parkhill,  R. Peverati,  
 V. A. Rassolov,  Yihan Shao,  L. V. Slipchenko,  T. Stauch,  R. P. Steele,  
 J. E. Subotnik,  A. J. W. Thom,  A. Tkatchenko,  D. G. Truhlar,  
 T. Van Voorhis,  T. A. Wesolowski,  K. B. Whaley,  H. L. Woodcock III,  
 P. M. Zimmerman,  S. Faraji,  P. M. W. Gill,  M. Head-Gordon,  
 J. M. Herbert,  A. I. Krylov

 Contributors to earlier versions of Q-Chem not listed above: 
 R. D. Adamson,  B. Austin,  R. Baer,  J. Baker,  G. J. O. Beran,  
 K. Brandhorst,  S. T. Brown,  E. F. C. Byrd,  A. K. Chakraborty,  
 G. K. L. Chan,  Chun-Min Chang,  Yunqing Chen,  C.-L. Cheng,  
 Siu Hung Chien,  D. M. Chipman,  D. L. Crittenden,  H. Dachsel,  
 R. J. Doerksen,  A. D. Dutoi,  R. G. Edgar,  J. Fosso-Tande,  
 L. Fusti-Molnar,  D. Ghosh,  A. Ghysels,  A. Golubeva-Zadorozhnaya,  
 J. Gonthier,  M. S. Gordon,  S. R. Gwaltney,  G. Hawkins,  J. E. Herr,  
 A. Heyden,  S. Hirata,  E. G. Hohenstein,  G. Kedziora,  F. J. Keil,  
 C. Kelley,  Jihan Kim,  R. A. King,  R. Z. Khaliullin,  P. P. Korambath,  
 W. Kurlancheek,  A. Laurent,  A. M. Lee,  M. S. Lee,  S. V. Levchenko,  
 Ching Yeh Lin,  D. Liotard,  E. Livshits,  R. C. Lochan,  I. Lotan,  
 L. A. Martinez-Martinez,  P. E. Maslen,  N. Nair,  D. P. O'Neill,  
 D. Neuhauser,  E. Neuscamman,  C. M. Oana,  R. Olivares-Amaya,  R. Olson,  
 T. M. Perrine,  B. Peters,  P. A. Pieniazek,  A. Prociuk,  Y. M. Rhee,  
 J. Ritchie,  M. A. Rohrdanz,  E. Rosta,  N. J. Russ,  H. F. Schaefer III,  
 M. W. Schmidt,  N. E. Schultz,  S. Sharma,  N. Shenvi,  C. D. Sherrill,  
 A. C. Simmonett,  A. Sodt,  T. Stein,  D. Stuck,  K. S. Thanthiriwatte,  
 V. Vanovschi,  L. Vogt,  Tao Wang,  A. Warshel,  M. A. Watson,  
 C. F. Williams,  Q. Wu,  X. Xu,  Jun Yang,  W. Zhang,  Yan Zhao

 Please cite Q-Chem as follows:
 Y. Shao et al., Mol. Phys. 113, 184-215 (2015)
 DOI: 10.1080/00268976.2014.952696

 Q-Chem 5.4.0 for Intel X86 EM64T Linux

 Parts of Q-Chem use Armadillo 9.800.1 (Horizon Scraper).
 http://arma.sourceforge.net/

 Q-Chem begins on Sun Jul 10 09:03:00 2022  

 Host: 
0

     Scratch files written to ./qchem1402511//
 May1621 |scratch|qcdevops|jenkins|workspace|build_RNUM    
 Processing $rem in /cm/shared/apps/spack/cpu/opt/spack/linux-centos8-zen2/gcc-10.2.0/qchem-5.4-akfmr7b3t57bfs6qan3padb2wnb2i7cl/config/preferences:
 Processing $rem in /home/theleonzhang/.qchemrc:
 Symmetry turned off for PCM/SM12/SMD calculation
 Core orbitals will be frozen

 Checking the input file for inconsistencies... 	...done.

--------------------------------------------------------------
User input:
--------------------------------------------------------------
$molecule
0 1
C	-0.112960	-0.566007	0.015607
C	0.037040	0.284493	1.115007
C	0.277340	1.647393	0.792307
H	-0.027060	-0.078707	2.151707
C	0.315740	1.864693	-0.596893
S	0.050740	0.362093	-1.471193
C	0.466240	2.718593	1.830207
H	0.392340	2.299393	2.852307
H	-0.298960	3.517893	1.741807
H	1.458740	3.207893	1.741807
C	-0.112960	-2.006707	0.015607
H	-1.192960	-2.006907	0.015507
H	-0.113060	-2.710507	0.834807
H	-0.112960	-2.525607	-0.931493
H	0.480540	2.799393	-1.145993
$end

$rem
JOBTYPE		SP
EXCHANGE	HF
CORRELATION	pRIMP2
BASIS		cc-pvtz
METHOD		rimp2
AUX_BASIS	rimp2-cc-pvtz
SOLVENT_METHOD	PCM
PURECART	11111
SYMMETRY	false
MEM_TOTAL	110000
SCF_CONVERGENCE = 6
THRESH=10
$end



$solvent
dielectric 4.90
$end
--------------------------------------------------------------
 ----------------------------------------------------------------
             Standard Nuclear Orientation (Angstroms)
    I     Atom           X                Y                Z
 ----------------------------------------------------------------
    1      C      -0.1129600000    -0.5660070000     0.0156070000
    2      C       0.0370400000     0.2844930000     1.1150070000
    3      C       0.2773400000     1.6473930000     0.7923070000
    4      H      -0.0270600000    -0.0787070000     2.1517070000
    5      C       0.3157400000     1.8646930000    -0.5968930000
    6      S       0.0507400000     0.3620930000    -1.4711930000
    7      C       0.4662400000     2.7185930000     1.8302070000
    8      H       0.3923400000     2.2993930000     2.8523070000
    9      H      -0.2989600000     3.5178930000     1.7418070000
   10      H       1.4587400000     3.2078930000     1.7418070000
   11      C      -0.1129600000    -2.0067070000     0.0156070000
   12      H      -1.1929600000    -2.0069070000     0.0155070000
   13      H      -0.1130600000    -2.7105070000     0.8348070000
   14      H      -0.1129600000    -2.5256070000    -0.9314930000
   15      H       0.4805400000     2.7993930000    -1.1459930000
 ----------------------------------------------------------------
 Nuclear Repulsion Energy =         344.45874948 hartrees
 There are       30 alpha and       30 beta electrons

 Q-Chem warning in module forms1/BasisType.C, line 2236:

 You are not using the predefined 5D/6D in this basis set.

 Requested basis set is cc-pVTZ
 There are 120 shells and 326 basis functions

 Total QAlloc Memory Limit 110000 MB
 Mega-Array Size       188 MB
 MEM_STATIC part       192 MB
 Discretize the solute cavity surface with Lebedev spheres
	Using 110 Lebedev grid points for each H atom
	Using 194 Lebedev grid points for other atoms
	Atomic van der Waals radii will be scaled by 1.20
 Remove points where switching function is < 1.0e-08
 Keep 1063 surface tesserae and discard 1175 interior tesserae
 Molecular Surface Area = 158.700 Angst**2

                       Distance Matrix (Angstroms)
             C (  1)   C (  2)   C (  3)   H (  4)   C (  5)   S (  6)
   C (  2)  1.398045
   C (  3)  2.377969  1.421047
   H (  4)  2.192661  1.100350  2.218118
   C (  5)  2.543077  2.346339  1.406617  3.383654
   S (  6)  1.760324  2.587400  2.612810  3.650447  1.758531
   C (  7)  3.796952  2.573046  1.503459  2.858600  2.577326  4.077373
   H (  8)  4.063584  2.684077  2.163777  2.514378  3.477328  4.749997
   H (  9)  4.437635  3.310687  2.175418  3.630080  2.929239  4.517160
   H ( 10)  4.437604  3.310646  2.175412  3.630063  2.929190  4.517124
   C ( 11)  1.440700  2.545737  3.756068  2.878799  3.942928  2.801533
   H ( 12)  1.800720  2.823529  4.014861  3.104936  4.200059  3.060919
   H ( 13)  2.295641  3.011821  4.375558  2.944146  4.813116  3.845171
   H ( 14)  2.176472  3.479558  4.531859  3.937108  4.423853  2.942258
   H ( 15)  3.609359  3.410797  2.263935  4.406353  1.096510  2.496180
             C (  7)   H (  8)   H (  9)   H ( 10)   C ( 11)   H ( 12)
   H (  8)  1.107194
   H (  9)  1.110057  1.787694
   H ( 10)  1.110083  1.787678  1.784828
   C ( 11)  5.094772  5.181186  5.790990  5.713323
   H ( 12)  5.326953  5.394889  5.856856  6.099653  1.080000
   H ( 13)  5.549913  5.424466  6.296838  6.190369  1.080011  1.527249
   H ( 14)  5.955174  6.152487  6.610977  6.518420  1.079933  1.527173
   H ( 15)  2.977331  4.030407  3.076240  3.076221  4.979975  5.220173
             H ( 13)   H ( 14)
   H ( 14)  1.775951
   H ( 15)  5.885145  5.362264
 
 Requested basis set is rimp2-cc-pVTZ
 There are 250 shells and 848 basis functions
 A cutoff of  1.0D-10 yielded   6163 shell pairs
 There are     45131 function pairs (     58026 Cartesian)
 Smallest overlap matrix eigenvalue = 8.96E-05

 Scale SEOQF with 1.000000e-01/1.000000e-01/1.000000e-01

 Standard Electronic Orientation quadrupole field applied
 Nucleus-field energy     =     0.0000000023 hartrees
 Guess from superposition of atomic densities
 Warning:  Energy on first SCF cycle will be non-variational
 SAD guess density has 60.000000 electrons

 -----------------------------------------------------------------------
  General SCF calculation program by
  Eric Jon Sundstrom, Paul Horn, Yuezhi Mao, Dmitri Zuev, Alec White,
  David Stuck, Shaama M.S., Shane Yost, Joonho Lee, David Small,
  Daniel Levine, Susi Lehtola, Hugh Burton, Evgeny Epifanovsky,
  Bang C. Huynh
 -----------------------------------------------------------------------
 Hartree-Fock
 A restricted SCF calculation will be
 performed using DIIS
 SCF converges when DIIS error is below 1.0e-06
 ---------------------------------------
  Cycle       Energy         DIIS error
 ---------------------------------------
    1    -632.0958328059      2.91e-02  
    2    -629.3394882872      1.96e-03  
    3    -629.4101161909      7.16e-04  
    4    -629.4180107286      3.65e-04  
    5    -629.4203482675      6.27e-05  
    6    -629.4204820804      2.60e-05  
    7    -629.4205142593      1.12e-05  
    8    -629.4205230646      5.18e-06  
    9    -629.4205245328      1.70e-06  
   10    -629.4205247255      6.91e-07  Convergence criterion met
 ---------------------------------------
 SCF time:   CPU 143.48s  wall 144.00s 

************** Final PCM Free Energy Summary **************
 G_electrostatic  =      -0.00589357 hartree =      -3.69826863 kcal/mol
 G_cavitation     =       0.00000000 hartree =       0.00000000 kcal/mol
 G_dispersion     =       0.00000000 hartree =       0.00000000 kcal/mol
 G_repulsion      =       0.00000000 hartree =       0.00000000 kcal/mol
 --------------------------------------------------
 Non-electrostatic Free Energy =       0.00000000 hartree =       0.00000000 kcal/mol
 Total                         =      -0.00589357 hartree =      -3.69826863 kcal/mol
 --------------------------------------------------
 SCF Energy (H0 + V/2)                       =    -629.42052473 
 Solute Internal Energy (H0)                 =    -629.41463116 
 Total Free Energy (H0 + V/2 + non-elec)     =    -629.42052473 hartree
                                             = -394967.34050707 kcal/mol
***********************************************************

 SCF   energy in the final basis set =     -629.4205247255
 Total energy in the final basis set =     -629.4205247255


 --------------------------------------------------------------
  Generalized many-body perturbation theory program
  by Joonho Lee, Fazle Rob, Xintian Feng, Evgeny Epifanovsky

 No regularization used 
 (reg. param. = 0.0000e+00)
  (P|Q)^-1/2 Time:  CPU 0.48 s  wall 0.48 s

 In RI-MP2 calculation: 
 # of frozen core orbitals: 11

 Components of the RIMP2 correlation energy:
        aaaa    correlation energy =        -0.1452205826 a.u.
        abab    correlation energy =        -0.8855590670 a.u.
        bbbb    correlation energy =        -0.1452205826 a.u.
        non-Brillouin singles      =        -0.0000000000 a.u.
        total same-spin energy     =        -0.2904411651 a.u.
        total opposite-spin energy =        -0.8855590670 a.u.

 Total  RIMP2   correlation energy =        -1.1760002321 a.u.
        RIMP2         total energy =      -630.5965249576 a.u.

 RI-MP2 Energy Time:  CPU 11.01 s  wall 11.05 s
 
 --------------------------------------------------------------
 
                    Orbital Energies (a.u.)
 --------------------------------------------------------------
 
 Alpha MOs
 -- Occupied --
-91.9788 -11.2842 -11.2492 -11.2468 -11.2263 -11.2228 -11.2211  -8.9785
 -6.6595  -6.6590  -6.6584  -1.1600  -1.0559  -0.9970  -0.9426  -0.8826
 -0.7439  -0.7186  -0.6492  -0.5863  -0.5735  -0.5681  -0.5544  -0.5462
 -0.5082  -0.4947  -0.4628  -0.4573  -0.3383  -0.2878
 -- Virtual --
  0.1133   0.1445   0.1474   0.1743   0.1892   0.1940   0.2059   0.2181
  0.2247   0.2417   0.2464   0.2576   0.2934   0.3260   0.3439   0.3551
  0.3873   0.3897   0.4016   0.4258   0.4313   0.4626   0.4696   0.4929
  0.4999   0.5133   0.5214   0.5323   0.5417   0.5636   0.5783   0.5914
  0.6007   0.6087   0.6173   0.6205   0.6343   0.6423   0.6443   0.6464
  0.6593   0.6662   0.6905   0.6951   0.7219   0.7432   0.7809   0.7898
  0.8201   0.8341   0.8396   0.8529   0.8741   0.8951   0.9001   0.9328
  0.9502   0.9850   0.9984   1.0256   1.0283   1.0589   1.0642   1.0772
  1.0819   1.0922   1.1000   1.1139   1.1343   1.1625   1.1703   1.2084
  1.2355   1.2470   1.2637   1.2686   1.2722   1.2889   1.3146   1.3365
  1.3741   1.3808   1.3904   1.4054   1.4305   1.4459   1.4548   1.4828
  1.4978   1.5108   1.5203   1.5305   1.5441   1.5650   1.5721   1.6029
  1.6049   1.6332   1.6405   1.6779   1.6926   1.7068   1.7253   1.7456
  1.7767   1.7900   1.8072   1.8410   1.8902   1.9033   1.9446   1.9518
  2.0244   2.0565   2.0963   2.1319   2.1775   2.2001   2.2315   2.2525
  2.2764   2.3164   2.3296   2.4132   2.4558   2.4656   2.4894   2.5295
  2.5615   2.6035   2.6401   2.6586   2.6779   2.7101   2.7308   2.7364
  2.7531   2.7697   2.7789   2.7972   2.8133   2.8354   2.8525   2.8647
  2.9153   2.9224   2.9472   2.9706   3.0213   3.0354   3.0574   3.0692
  3.0863   3.1125   3.1196   3.1306   3.1491   3.1581   3.1773   3.1782
  3.2181   3.2421   3.2589   3.2722   3.2959   3.3132   3.3202   3.3306
  3.3448   3.3520   3.3794   3.3838   3.3969   3.4039   3.4352   3.4367
  3.4553   3.4654   3.4692   3.4883   3.4962   3.5075   3.5257   3.5385
  3.5815   3.5950   3.6186   3.6250   3.6315   3.6531   3.6659   3.6878
  3.6936   3.7090   3.7126   3.7461   3.7516   3.7737   3.7934   3.8027
  3.8157   3.8338   3.8594   3.9073   3.9180   3.9279   3.9319   3.9625
  3.9668   3.9939   4.0212   4.0297   4.0496   4.0732   4.0833   4.1065
  4.1296   4.1390   4.1789   4.2089   4.2106   4.2373   4.2476   4.2725
  4.2891   4.3006   4.3162   4.3383   4.3497   4.3576   4.3976   4.4025
  4.4147   4.4266   4.4407   4.4449   4.4681   4.5160   4.5563   4.5585
  4.6117   4.6172   4.6437   4.6733   4.6984   4.7279   4.7593   4.7825
  4.8236   4.8355   4.8700   4.8879   4.9178   4.9619   5.0851   5.1027
  5.1140   5.1359   5.1809   5.1998   5.2098   5.2639   5.2850   5.3275
  5.3747   5.4099   5.4198   5.4445   5.4853   5.5359   5.5511   5.5688
  5.5759   5.6128   5.6247   5.6571   5.7011   5.8119   5.8316   5.8585
  5.9448   6.0217   6.0888   6.1646   6.2276   6.2556   6.3032   6.3940
  6.4494   6.6165   9.2225  11.4335  12.9381  13.8179  14.1716  14.6079
 --------------------------------------------------------------
 
          Ground-State Mulliken Net Atomic Charges

     Atom                 Charge (a.u.)
  ----------------------------------------
      1 C                     0.058862
      2 C                    -0.305026
      3 C                     0.050394
      4 H                     0.175948
      5 C                    -0.280689
      6 S                     0.003292
      7 C                    -0.273690
      8 H                     0.101323
      9 H                     0.107220
     10 H                     0.107172
     11 C                    -0.382207
     12 H                     0.140387
     13 H                     0.165144
     14 H                     0.138787
     15 H                     0.193081
  ----------------------------------------
  Sum of atomic charges =     0.000000

 -----------------------------------------------------------------
                    Cartesian Multipole Moments
 -----------------------------------------------------------------
    Charge (ESU x 10^10)
                -0.0000
    Dipole Moment (Debye)
         X      -0.5526      Y      -0.7044      Z       1.3870
       Tot       1.6508
    Quadrupole Moments (Debye-Ang)
        XX     -54.0101     XY       3.0902     YY     -42.0341
        XZ       0.0104     YZ       0.1892     ZZ     -48.5354
    Octopole Moments (Debye-Ang^2)
       XXX     -18.5692    XXY     -30.2672    XYY      -5.7903
       YYY     -82.0938    XXZ      -1.8942    XYZ      -0.3273
       YYZ      -3.3720    XZZ      -5.0617    YZZ     -25.8737
       ZZZ       0.6892
    Hexadecapole Moments (Debye-Ang^3)
      XXXX     -96.2952   XXXY     -59.3299   XXYY    -161.7309
      XYYY     -42.4844   YYYY    -793.7322   XXXZ     -15.8551
      XXYZ     -30.2845   XYYZ      -7.7034   YYYZ    -105.0875
      XXZZ    -104.8405   XYZZ     -15.7658   YYZZ    -207.3216
      XZZZ     -17.9511   YZZZ     -99.9186   ZZZZ    -484.0408
 -----------------------------------------------------------------
 Total job time:  156.31s(wall), 154.84s(cpu) 
 Sun Jul 10 09:05:36 2022

        *************************************************************
        *                                                           *
        *  Thank you very much for using Q-Chem.  Have a nice day.  *
        *                                                           *
        *************************************************************


remove work dirs ./qchem1402511.0 -- ./qchem1402511.-1
rm -rf ./qchem1402511
You are running Q-Chem version: 5.4.0

#
# job setting
#
local host:  exp-3-07
current dir: /expanse/lustre/scratch/theleonzhang/temp_project/Hydrogenated_Impropers_Test
input file:  Methylthiophene_Phi_10_Theta_180_Methylthiophene_Hydrogenated_Improper.qcin
output file: 
nprocs     : 0
nthreads   : 1
#
# qchem installation setting
#
QC:          /cm/shared/apps/spack/cpu/opt/spack/linux-centos8-zen2/gcc-10.2.0/qchem-5.4-akfmr7b3t57bfs6qan3padb2wnb2i7cl
QCAUX:       /cm/shared/apps/spack/cpu/opt/spack/linux-centos8-zen2/gcc-10.2.0/qchem-5.4-akfmr7b3t57bfs6qan3padb2wnb2i7cl/qcaux
QCPROG:      /cm/shared/apps/spack/cpu/opt/spack/linux-centos8-zen2/gcc-10.2.0/qchem-5.4-akfmr7b3t57bfs6qan3padb2wnb2i7cl/exe/qcprog.exe_s
QCPROG_S:    /cm/shared/apps/spack/cpu/opt/spack/linux-centos8-zen2/gcc-10.2.0/qchem-5.4-akfmr7b3t57bfs6qan3padb2wnb2i7cl/exe/qcprog.exe_s
PARALLEL:    -DSERIAL
QCMPI:       mpich
#
# qchem directory setting
#
qcrun:       qchem3293502
QCSCRATCH:   .
QCLOCALSCR:  
QCTMPDIR:    .
QCFILEPREF:  ./qchem3293502
QCSAVEDIR:   
workdirs:    ./qchem3293502
workdir0:    ./qchem3293502
partmpdirs =  
#
# parallel setting
#
QCRSH:           ssh
QCMPI:           mpich
QCMPIRUN:        /cm/shared/apps/spack/cpu/opt/spack/linux-centos8-zen2/gcc-10.2.0/qchem-5.4-akfmr7b3t57bfs6qan3padb2wnb2i7cl/bin/mpi/mpirun_qchem
QCMACHINEFILE:   ./qchem3293502/hostfile

#
# env setting
#
exported envs:   QC QCAUX QCSCRATCH QCRUNNAME QCFILEPREF QCPROG QCPROG_S GUIFILE

Running Job 1 of 1 Methylthiophene_Phi_10_Theta_180_Methylthiophene_Hydrogenated_Improper.qcin
qchem Methylthiophene_Phi_10_Theta_180_Methylthiophene_Hydrogenated_Improper.qcin_3293502.0 ./qchem3293502/ 0
/cm/shared/apps/spack/cpu/opt/spack/linux-centos8-zen2/gcc-10.2.0/qchem-5.4-akfmr7b3t57bfs6qan3padb2wnb2i7cl/exe/qcprog.exe_s Methylthiophene_Phi_10_Theta_180_Methylthiophene_Hydrogenated_Improper.qcin_3293502.0 ./qchem3293502/
                  Welcome to Q-Chem
     A Quantum Leap Into The Future Of Chemistry


 Q-Chem 5.4, Q-Chem, Inc., Pleasanton, CA (2021)

 License issued to: University of California, San Diego (site)

 E. Epifanovsky,  A. T. B. Gilbert,  Xintian Feng,  Joonho Lee,  Yuezhi Mao,  
 N. Mardirossian,  P. Pokhilko,  A. White,  M. Wormit,  M. P. Coons,  
 A. L. Dempwolff,  Zhengting Gan,  D. Hait,  P. R. Horn,  L. D. Jacobson,  
 I. Kaliman,  J. Kussmann,  A. W. Lange,  Ka Un Lao,  D. S. Levine,  Jie Liu,  
 S. C. McKenzie,  A. F. Morrison,  K. Nanda,  F. Plasser,  D. R. Rehn,  
 M. L. Vidal,  Zhi-Qiang You,  Ying Zhu,  B. Alam,  B. Albrecht,  
 A. Aldossary,  E. Alguire,  J. H. Andersen,  D. Barton,  K. Begam,  A. Behn,  
 Y. A. Bernard,  E. J. Berquist,  H. Burton,  A. Carreras,  K. Carter-Fenk,  
 R. Chakraborty,  A. D. Chien,  K. D. Closser,  V. Cofer-Shabica,  
 S. Dasgupta,  Jia Deng,  M. de Wergifosse,  M. Diedenhofen,  Hainam Do,  
 S. Ehlert,  Po-Tung Fang,  S. Fatehi,  Qingguo Feng,  J. Gayvert,  
 Qinghui Ge,  G. Gidofalvi,  M. Goldey,  J. Gomes,  C. Gonzalez-Espinoza,  
 S. Gulania,  A. Gunina,  M. W. D. Hanson-Heine,  P. H. P. Harbach,  
 A. W. Hauser,  M. F. Herbst,  M. Hernandez Vera,  M. Hodecker,  
 Z. C. Holden,  S. Houck,  Xunkun Huang,  Kerwin Hui,  B. C. Huynh,  
 M. Ivanov,  Hyunjun Ji,  Hanjie Jiang,  B. Kaduk,  S. Kaehler,  
 K. Khistyaev,  Jaehoon Kim,  P. Klunzinger,  Z. Koczor-Benda,  
 Joong Hoon Koh,  D. Kosenkov,  L. Koulias,  T. Kowalczyk,  C. M. Krauter,  
 K. Kue,  A. Kunitsa,  T. Kus,  A. Landau,  K. V. Lawler,  D. Lefrancois,  
 S. Lehtola,  Rain Li,  Yi-Pei Li,  Jiashu Liang,  M. Liebenthal,  
 Hung-Hsuan Lin,  You-Sheng Lin,  Fenglai Liu,  Kuan-Yu Liu,  
 M. Loipersberger,  A. Luenser,  A. Manjanath,  P. Manohar,  E. Mansoor,  
 S. F. Manzer,  Shan-Ping Mao,  A. V. Marenich,  T. Markovich,  S. Mason,  
 S. A. Maurer,  P. F. McLaughlin,  M. F. S. J. Menger,  J.-M. Mewes,  
 S. A. Mewes,  P. Morgante,  J. W. Mullinax,  T. S. Nguyen-Beck,  
 K. J. Oosterbaan,  G. Paran,  Alexander C. Paul,  Suranjan K. Paul,  
 F. Pavosevic,  Zheng Pei,  S. Prager,  E. I. Proynov,  E. Ramos,  B. Rana,  
 A. E. Rask,  A. Rettig,  R. M. Richard,  F. Rob,  E. Rossomme,  T. Scheele,  
 M. Scheurer,  M. Schneider,  N. Sergueev,  S. M. Sharada,  W. Skomorowski,  
 D. W. Small,  C. J. Stein,  Yu-Chuan Su,  E. J. Sundstrom,  Zhen Tao,  
 J. Thirman,  T. Tsuchimochi,  N. M. Tubman,  S. P. Veccham,  O. Vydrov,  
 J. Wenzel,  J. Witte,  A. Yamada,  Kun Yao,  S. Yeganeh,  S. R. Yost,  
 A. Zech,  Igor Ying Zhang,  Xing Zhang,  Yu Zhang,  D. Zuev,  
 A. Aspuru-Guzik,  A. T. Bell,  N. A. Besley,  K. B. Bravaya,  B. R. Brooks,  
 D. Casanova,  Jeng-Da Chai,  S. Coriani,  C. J. Cramer,  
 A. E. DePrince, III,  R. A. DiStasio Jr.,  A. Dreuw,  B. D. Dunietz,  
 T. R. Furlani,  W. A. Goddard III,  S. Grimme,  S. Hammes-Schiffer,  
 T. Head-Gordon,  W. J. Hehre,  Chao-Ping Hsu,  T.-C. Jagau,  Yousung Jung,  
 A. Klamt,  Jing Kong,  D. S. Lambrecht,  WanZhen Liang,  N. J. Mayhall,  
 C. W. McCurdy,  J. B. Neaton,  C. Ochsenfeld,  J. A. Parkhill,  R. Peverati,  
 V. A. Rassolov,  Yihan Shao,  L. V. Slipchenko,  T. Stauch,  R. P. Steele,  
 J. E. Subotnik,  A. J. W. Thom,  A. Tkatchenko,  D. G. Truhlar,  
 T. Van Voorhis,  T. A. Wesolowski,  K. B. Whaley,  H. L. Woodcock III,  
 P. M. Zimmerman,  S. Faraji,  P. M. W. Gill,  M. Head-Gordon,  
 J. M. Herbert,  A. I. Krylov

 Contributors to earlier versions of Q-Chem not listed above: 
 R. D. Adamson,  B. Austin,  R. Baer,  J. Baker,  G. J. O. Beran,  
 K. Brandhorst,  S. T. Brown,  E. F. C. Byrd,  A. K. Chakraborty,  
 G. K. L. Chan,  Chun-Min Chang,  Yunqing Chen,  C.-L. Cheng,  
 Siu Hung Chien,  D. M. Chipman,  D. L. Crittenden,  H. Dachsel,  
 R. J. Doerksen,  A. D. Dutoi,  R. G. Edgar,  J. Fosso-Tande,  
 L. Fusti-Molnar,  D. Ghosh,  A. Ghysels,  A. Golubeva-Zadorozhnaya,  
 J. Gonthier,  M. S. Gordon,  S. R. Gwaltney,  G. Hawkins,  J. E. Herr,  
 A. Heyden,  S. Hirata,  E. G. Hohenstein,  G. Kedziora,  F. J. Keil,  
 C. Kelley,  Jihan Kim,  R. A. King,  R. Z. Khaliullin,  P. P. Korambath,  
 W. Kurlancheek,  A. Laurent,  A. M. Lee,  M. S. Lee,  S. V. Levchenko,  
 Ching Yeh Lin,  D. Liotard,  E. Livshits,  R. C. Lochan,  I. Lotan,  
 L. A. Martinez-Martinez,  P. E. Maslen,  N. Nair,  D. P. O'Neill,  
 D. Neuhauser,  E. Neuscamman,  C. M. Oana,  R. Olivares-Amaya,  R. Olson,  
 T. M. Perrine,  B. Peters,  P. A. Pieniazek,  A. Prociuk,  Y. M. Rhee,  
 J. Ritchie,  M. A. Rohrdanz,  E. Rosta,  N. J. Russ,  H. F. Schaefer III,  
 M. W. Schmidt,  N. E. Schultz,  S. Sharma,  N. Shenvi,  C. D. Sherrill,  
 A. C. Simmonett,  A. Sodt,  T. Stein,  D. Stuck,  K. S. Thanthiriwatte,  
 V. Vanovschi,  L. Vogt,  Tao Wang,  A. Warshel,  M. A. Watson,  
 C. F. Williams,  Q. Wu,  X. Xu,  Jun Yang,  W. Zhang,  Yan Zhao

 Please cite Q-Chem as follows:
 Y. Shao et al., Mol. Phys. 113, 184-215 (2015)
 DOI: 10.1080/00268976.2014.952696

 Q-Chem 5.4.0 for Intel X86 EM64T Linux

 Parts of Q-Chem use Armadillo 9.800.1 (Horizon Scraper).
 http://arma.sourceforge.net/

 Q-Chem begins on Sun Jul 10 09:37:08 2022  

 Host: 
0

     Scratch files written to ./qchem3293502//
 May1621 |scratch|qcdevops|jenkins|workspace|build_RNUM    
 Processing $rem in /cm/shared/apps/spack/cpu/opt/spack/linux-centos8-zen2/gcc-10.2.0/qchem-5.4-akfmr7b3t57bfs6qan3padb2wnb2i7cl/config/preferences:
 Processing $rem in /home/theleonzhang/.qchemrc:
 Symmetry turned off for PCM/SM12/SMD calculation
 Core orbitals will be frozen

 Checking the input file for inconsistencies... 	...done.

--------------------------------------------------------------
User input:
--------------------------------------------------------------
$molecule
0 1
C	-0.112960	-0.566007	0.015607
C	0.037040	0.284493	1.115007
C	0.277340	1.647393	0.792307
H	-0.027060	-0.078707	2.151707
C	0.315740	1.864693	-0.596893
S	0.050740	0.362093	-1.471193
C	0.466240	2.718593	1.830207
H	0.392340	2.299393	2.852307
H	-0.298960	3.517893	1.741807
H	1.458740	3.207893	1.741807
C	-0.112960	-2.006707	0.015607
H	-1.192960	-2.006907	0.015507
H	-0.113060	-2.710507	0.834807
H	-0.112960	-2.525607	-0.931493
H	0.480540	2.799393	-1.145993
$end

$rem
JOBTYPE		SP
EXCHANGE	HF
CORRELATION	pRIMP2
BASIS		cc-pvtz
METHOD		rimp2
AUX_BASIS	rimp2-cc-pvtz
SOLVENT_METHOD	PCM
PURECART	11111
SYMMETRY	false
MEM_TOTAL	110000
SCF_CONVERGENCE = 6
THRESH=10
$end



$solvent
dielectric 4.90
$end
--------------------------------------------------------------
 ----------------------------------------------------------------
             Standard Nuclear Orientation (Angstroms)
    I     Atom           X                Y                Z
 ----------------------------------------------------------------
    1      C      -0.1129600000    -0.5660070000     0.0156070000
    2      C       0.0370400000     0.2844930000     1.1150070000
    3      C       0.2773400000     1.6473930000     0.7923070000
    4      H      -0.0270600000    -0.0787070000     2.1517070000
    5      C       0.3157400000     1.8646930000    -0.5968930000
    6      S       0.0507400000     0.3620930000    -1.4711930000
    7      C       0.4662400000     2.7185930000     1.8302070000
    8      H       0.3923400000     2.2993930000     2.8523070000
    9      H      -0.2989600000     3.5178930000     1.7418070000
   10      H       1.4587400000     3.2078930000     1.7418070000
   11      C      -0.1129600000    -2.0067070000     0.0156070000
   12      H      -1.1929600000    -2.0069070000     0.0155070000
   13      H      -0.1130600000    -2.7105070000     0.8348070000
   14      H      -0.1129600000    -2.5256070000    -0.9314930000
   15      H       0.4805400000     2.7993930000    -1.1459930000
 ----------------------------------------------------------------
 Nuclear Repulsion Energy =         344.45874948 hartrees
 There are       30 alpha and       30 beta electrons

 Q-Chem warning in module forms1/BasisType.C, line 2236:

 You are not using the predefined 5D/6D in this basis set.

 Requested basis set is cc-pVTZ
 There are 120 shells and 326 basis functions

 Total QAlloc Memory Limit 110000 MB
 Mega-Array Size       188 MB
 MEM_STATIC part       192 MB
 Discretize the solute cavity surface with Lebedev spheres
	Using 110 Lebedev grid points for each H atom
	Using 194 Lebedev grid points for other atoms
	Atomic van der Waals radii will be scaled by 1.20
 Remove points where switching function is < 1.0e-08
 Keep 1063 surface tesserae and discard 1175 interior tesserae
 Molecular Surface Area = 158.700 Angst**2

                       Distance Matrix (Angstroms)
             C (  1)   C (  2)   C (  3)   H (  4)   C (  5)   S (  6)
   C (  2)  1.398045
   C (  3)  2.377969  1.421047
   H (  4)  2.192661  1.100350  2.218118
   C (  5)  2.543077  2.346339  1.406617  3.383654
   S (  6)  1.760324  2.587400  2.612810  3.650447  1.758531
   C (  7)  3.796952  2.573046  1.503459  2.858600  2.577326  4.077373
   H (  8)  4.063584  2.684077  2.163777  2.514378  3.477328  4.749997
   H (  9)  4.437635  3.310687  2.175418  3.630080  2.929239  4.517160
   H ( 10)  4.437604  3.310646  2.175412  3.630063  2.929190  4.517124
   C ( 11)  1.440700  2.545737  3.756068  2.878799  3.942928  2.801533
   H ( 12)  1.800720  2.823529  4.014861  3.104936  4.200059  3.060919
   H ( 13)  2.295641  3.011821  4.375558  2.944146  4.813116  3.845171
   H ( 14)  2.176472  3.479558  4.531859  3.937108  4.423853  2.942258
   H ( 15)  3.609359  3.410797  2.263935  4.406353  1.096510  2.496180
             C (  7)   H (  8)   H (  9)   H ( 10)   C ( 11)   H ( 12)
   H (  8)  1.107194
   H (  9)  1.110057  1.787694
   H ( 10)  1.110083  1.787678  1.784828
   C ( 11)  5.094772  5.181186  5.790990  5.713323
   H ( 12)  5.326953  5.394889  5.856856  6.099653  1.080000
   H ( 13)  5.549913  5.424466  6.296838  6.190369  1.080011  1.527249
   H ( 14)  5.955174  6.152487  6.610977  6.518420  1.079933  1.527173
   H ( 15)  2.977331  4.030407  3.076240  3.076221  4.979975  5.220173
             H ( 13)   H ( 14)
   H ( 14)  1.775951
   H ( 15)  5.885145  5.362264
 
 Requested basis set is rimp2-cc-pVTZ
 There are 250 shells and 848 basis functions
 A cutoff of  1.0D-10 yielded   6163 shell pairs
 There are     45131 function pairs (     58026 Cartesian)
 Smallest overlap matrix eigenvalue = 8.96E-05

 Scale SEOQF with 1.000000e-01/1.000000e-01/1.000000e-01

 Standard Electronic Orientation quadrupole field applied
 Nucleus-field energy     =     0.0000000023 hartrees
 Guess from superposition of atomic densities
 Warning:  Energy on first SCF cycle will be non-variational
 SAD guess density has 60.000000 electrons

 -----------------------------------------------------------------------
  General SCF calculation program by
  Eric Jon Sundstrom, Paul Horn, Yuezhi Mao, Dmitri Zuev, Alec White,
  David Stuck, Shaama M.S., Shane Yost, Joonho Lee, David Small,
  Daniel Levine, Susi Lehtola, Hugh Burton, Evgeny Epifanovsky,
  Bang C. Huynh
 -----------------------------------------------------------------------
 Hartree-Fock
 A restricted SCF calculation will be
 performed using DIIS
 SCF converges when DIIS error is below 1.0e-06
 ---------------------------------------
  Cycle       Energy         DIIS error
 ---------------------------------------
    1    -632.0958328059      2.91e-02  
    2    -629.3394882872      1.96e-03  
    3    -629.4101161909      7.16e-04  
    4    -629.4180107286      3.65e-04  
    5    -629.4203482675      6.27e-05  
    6    -629.4204820804      2.60e-05  
    7    -629.4205142593      1.12e-05  
    8    -629.4205230646      5.18e-06  
    9    -629.4205245328      1.70e-06  
   10    -629.4205247255      6.91e-07  Convergence criterion met
 ---------------------------------------
 SCF time:   CPU 143.83s  wall 144.00s 

************** Final PCM Free Energy Summary **************
 G_electrostatic  =      -0.00589357 hartree =      -3.69826863 kcal/mol
 G_cavitation     =       0.00000000 hartree =       0.00000000 kcal/mol
 G_dispersion     =       0.00000000 hartree =       0.00000000 kcal/mol
 G_repulsion      =       0.00000000 hartree =       0.00000000 kcal/mol
 --------------------------------------------------
 Non-electrostatic Free Energy =       0.00000000 hartree =       0.00000000 kcal/mol
 Total                         =      -0.00589357 hartree =      -3.69826863 kcal/mol
 --------------------------------------------------
 SCF Energy (H0 + V/2)                       =    -629.42052473 
 Solute Internal Energy (H0)                 =    -629.41463116 
 Total Free Energy (H0 + V/2 + non-elec)     =    -629.42052473 hartree
                                             = -394967.34050707 kcal/mol
***********************************************************

 SCF   energy in the final basis set =     -629.4205247255
 Total energy in the final basis set =     -629.4205247255


 --------------------------------------------------------------
  Generalized many-body perturbation theory program
  by Joonho Lee, Fazle Rob, Xintian Feng, Evgeny Epifanovsky

 No regularization used 
 (reg. param. = 0.0000e+00)
  (P|Q)^-1/2 Time:  CPU 0.49 s  wall 0.49 s

 In RI-MP2 calculation: 
 # of frozen core orbitals: 11

 Components of the RIMP2 correlation energy:
        aaaa    correlation energy =        -0.1452205826 a.u.
        abab    correlation energy =        -0.8855590670 a.u.
        bbbb    correlation energy =        -0.1452205826 a.u.
        non-Brillouin singles      =        -0.0000000000 a.u.
        total same-spin energy     =        -0.2904411651 a.u.
        total opposite-spin energy =        -0.8855590670 a.u.

 Total  RIMP2   correlation energy =        -1.1760002321 a.u.
        RIMP2         total energy =      -630.5965249576 a.u.

 RI-MP2 Energy Time:  CPU 11.18 s  wall 11.22 s
 
 --------------------------------------------------------------
 
                    Orbital Energies (a.u.)
 --------------------------------------------------------------
 
 Alpha MOs
 -- Occupied --
-91.9788 -11.2842 -11.2492 -11.2468 -11.2263 -11.2228 -11.2211  -8.9785
 -6.6595  -6.6590  -6.6584  -1.1600  -1.0559  -0.9970  -0.9426  -0.8826
 -0.7439  -0.7186  -0.6492  -0.5863  -0.5735  -0.5681  -0.5544  -0.5462
 -0.5082  -0.4947  -0.4628  -0.4573  -0.3383  -0.2878
 -- Virtual --
  0.1133   0.1445   0.1474   0.1743   0.1892   0.1940   0.2059   0.2181
  0.2247   0.2417   0.2464   0.2576   0.2934   0.3260   0.3439   0.3551
  0.3873   0.3897   0.4016   0.4258   0.4313   0.4626   0.4696   0.4929
  0.4999   0.5133   0.5214   0.5323   0.5417   0.5636   0.5783   0.5914
  0.6007   0.6087   0.6173   0.6205   0.6343   0.6423   0.6443   0.6464
  0.6593   0.6662   0.6905   0.6951   0.7219   0.7432   0.7809   0.7898
  0.8201   0.8341   0.8396   0.8529   0.8741   0.8951   0.9001   0.9328
  0.9502   0.9850   0.9984   1.0256   1.0283   1.0589   1.0642   1.0772
  1.0819   1.0922   1.1000   1.1139   1.1343   1.1625   1.1703   1.2084
  1.2355   1.2470   1.2637   1.2686   1.2722   1.2889   1.3146   1.3365
  1.3741   1.3808   1.3904   1.4054   1.4305   1.4459   1.4548   1.4828
  1.4978   1.5108   1.5203   1.5305   1.5441   1.5650   1.5721   1.6029
  1.6049   1.6332   1.6405   1.6779   1.6926   1.7068   1.7253   1.7456
  1.7767   1.7900   1.8072   1.8410   1.8902   1.9033   1.9446   1.9518
  2.0244   2.0565   2.0963   2.1319   2.1775   2.2001   2.2315   2.2525
  2.2764   2.3164   2.3296   2.4132   2.4558   2.4656   2.4894   2.5295
  2.5615   2.6035   2.6401   2.6586   2.6779   2.7101   2.7308   2.7364
  2.7531   2.7697   2.7789   2.7972   2.8133   2.8354   2.8525   2.8647
  2.9153   2.9224   2.9472   2.9706   3.0213   3.0354   3.0574   3.0692
  3.0863   3.1125   3.1196   3.1306   3.1491   3.1581   3.1773   3.1782
  3.2181   3.2421   3.2589   3.2722   3.2959   3.3132   3.3202   3.3306
  3.3448   3.3520   3.3794   3.3838   3.3969   3.4039   3.4352   3.4367
  3.4553   3.4654   3.4692   3.4883   3.4962   3.5075   3.5257   3.5385
  3.5815   3.5950   3.6186   3.6250   3.6315   3.6531   3.6659   3.6878
  3.6936   3.7090   3.7126   3.7461   3.7516   3.7737   3.7934   3.8027
  3.8157   3.8338   3.8594   3.9073   3.9180   3.9279   3.9319   3.9625
  3.9668   3.9939   4.0212   4.0297   4.0496   4.0732   4.0833   4.1065
  4.1296   4.1390   4.1789   4.2089   4.2106   4.2373   4.2476   4.2725
  4.2891   4.3006   4.3162   4.3383   4.3497   4.3576   4.3976   4.4025
  4.4147   4.4266   4.4407   4.4449   4.4681   4.5160   4.5563   4.5585
  4.6117   4.6172   4.6437   4.6733   4.6984   4.7279   4.7593   4.7825
  4.8236   4.8355   4.8700   4.8879   4.9178   4.9619   5.0851   5.1027
  5.1140   5.1359   5.1809   5.1998   5.2098   5.2639   5.2850   5.3275
  5.3747   5.4099   5.4198   5.4445   5.4853   5.5359   5.5511   5.5688
  5.5759   5.6128   5.6247   5.6571   5.7011   5.8119   5.8316   5.8585
  5.9448   6.0217   6.0888   6.1646   6.2276   6.2556   6.3032   6.3940
  6.4494   6.6165   9.2225  11.4335  12.9381  13.8179  14.1716  14.6079
 --------------------------------------------------------------
 
          Ground-State Mulliken Net Atomic Charges

     Atom                 Charge (a.u.)
  ----------------------------------------
      1 C                     0.058862
      2 C                    -0.305026
      3 C                     0.050394
      4 H                     0.175948
      5 C                    -0.280689
      6 S                     0.003292
      7 C                    -0.273690
      8 H                     0.101323
      9 H                     0.107220
     10 H                     0.107172
     11 C                    -0.382207
     12 H                     0.140387
     13 H                     0.165144
     14 H                     0.138787
     15 H                     0.193081
  ----------------------------------------
  Sum of atomic charges =     0.000000

 -----------------------------------------------------------------
                    Cartesian Multipole Moments
 -----------------------------------------------------------------
    Charge (ESU x 10^10)
                -0.0000
    Dipole Moment (Debye)
         X      -0.5526      Y      -0.7044      Z       1.3870
       Tot       1.6508
    Quadrupole Moments (Debye-Ang)
        XX     -54.0101     XY       3.0902     YY     -42.0341
        XZ       0.0104     YZ       0.1892     ZZ     -48.5354
    Octopole Moments (Debye-Ang^2)
       XXX     -18.5692    XXY     -30.2672    XYY      -5.7903
       YYY     -82.0938    XXZ      -1.8942    XYZ      -0.3273
       YYZ      -3.3720    XZZ      -5.0617    YZZ     -25.8737
       ZZZ       0.6892
    Hexadecapole Moments (Debye-Ang^3)
      XXXX     -96.2952   XXXY     -59.3299   XXYY    -161.7309
      XYYY     -42.4844   YYYY    -793.7322   XXXZ     -15.8551
      XXYZ     -30.2845   XYYZ      -7.7034   YYYZ    -105.0875
      XXZZ    -104.8405   XYZZ     -15.7658   YYZZ    -207.3216
      XZZZ     -17.9511   YZZZ     -99.9186   ZZZZ    -484.0408
 -----------------------------------------------------------------
 Total job time:  157.68s(wall), 155.39s(cpu) 
 Sun Jul 10 09:39:46 2022

        *************************************************************
        *                                                           *
        *  Thank you very much for using Q-Chem.  Have a nice day.  *
        *                                                           *
        *************************************************************


remove work dirs ./qchem3293502.0 -- ./qchem3293502.-1
rm -rf ./qchem3293502
