You are running Q-Chem version: 5.4.0

#
# job setting
#
local host:  exp-3-27
current dir: /expanse/lustre/scratch/theleonzhang/temp_project/Hydrogenated_Impropers_Test
input file:  Methylthiophene_Phi_20_Theta_0_Methylthiophene_Hydrogenated_Improper.qcin
output file: 
nprocs     : 0
nthreads   : 1
#
# qchem installation setting
#
QC:          /cm/shared/apps/spack/cpu/opt/spack/linux-centos8-zen2/gcc-10.2.0/qchem-5.4-akfmr7b3t57bfs6qan3padb2wnb2i7cl
QCAUX:       /cm/shared/apps/spack/cpu/opt/spack/linux-centos8-zen2/gcc-10.2.0/qchem-5.4-akfmr7b3t57bfs6qan3padb2wnb2i7cl/qcaux
QCPROG:      /cm/shared/apps/spack/cpu/opt/spack/linux-centos8-zen2/gcc-10.2.0/qchem-5.4-akfmr7b3t57bfs6qan3padb2wnb2i7cl/exe/qcprog.exe_s
QCPROG_S:    /cm/shared/apps/spack/cpu/opt/spack/linux-centos8-zen2/gcc-10.2.0/qchem-5.4-akfmr7b3t57bfs6qan3padb2wnb2i7cl/exe/qcprog.exe_s
PARALLEL:    -DSERIAL
QCMPI:       mpich
#
# qchem directory setting
#
qcrun:       qchem2523505
QCSCRATCH:   .
QCLOCALSCR:  
QCTMPDIR:    .
QCFILEPREF:  ./qchem2523505
QCSAVEDIR:   
workdirs:    ./qchem2523505
workdir0:    ./qchem2523505
partmpdirs =  
#
# parallel setting
#
QCRSH:           ssh
QCMPI:           mpich
QCMPIRUN:        /cm/shared/apps/spack/cpu/opt/spack/linux-centos8-zen2/gcc-10.2.0/qchem-5.4-akfmr7b3t57bfs6qan3padb2wnb2i7cl/bin/mpi/mpirun_qchem
QCMACHINEFILE:   ./qchem2523505/hostfile

#
# env setting
#
exported envs:   QC QCAUX QCSCRATCH QCRUNNAME QCFILEPREF QCPROG QCPROG_S GUIFILE

Running Job 1 of 1 Methylthiophene_Phi_20_Theta_0_Methylthiophene_Hydrogenated_Improper.qcin
qchem Methylthiophene_Phi_20_Theta_0_Methylthiophene_Hydrogenated_Improper.qcin_2523505.0 ./qchem2523505/ 0
/cm/shared/apps/spack/cpu/opt/spack/linux-centos8-zen2/gcc-10.2.0/qchem-5.4-akfmr7b3t57bfs6qan3padb2wnb2i7cl/exe/qcprog.exe_s Methylthiophene_Phi_20_Theta_0_Methylthiophene_Hydrogenated_Improper.qcin_2523505.0 ./qchem2523505/
                  Welcome to Q-Chem
     A Quantum Leap Into The Future Of Chemistry


 Q-Chem 5.4, Q-Chem, Inc., Pleasanton, CA (2021)

 License issued to: University of California, San Diego (site)

 E. Epifanovsky,  A. T. B. Gilbert,  Xintian Feng,  Joonho Lee,  Yuezhi Mao,  
 N. Mardirossian,  P. Pokhilko,  A. White,  M. Wormit,  M. P. Coons,  
 A. L. Dempwolff,  Zhengting Gan,  D. Hait,  P. R. Horn,  L. D. Jacobson,  
 I. Kaliman,  J. Kussmann,  A. W. Lange,  Ka Un Lao,  D. S. Levine,  Jie Liu,  
 S. C. McKenzie,  A. F. Morrison,  K. Nanda,  F. Plasser,  D. R. Rehn,  
 M. L. Vidal,  Zhi-Qiang You,  Ying Zhu,  B. Alam,  B. Albrecht,  
 A. Aldossary,  E. Alguire,  J. H. Andersen,  D. Barton,  K. Begam,  A. Behn,  
 Y. A. Bernard,  E. J. Berquist,  H. Burton,  A. Carreras,  K. Carter-Fenk,  
 R. Chakraborty,  A. D. Chien,  K. D. Closser,  V. Cofer-Shabica,  
 S. Dasgupta,  Jia Deng,  M. de Wergifosse,  M. Diedenhofen,  Hainam Do,  
 S. Ehlert,  Po-Tung Fang,  S. Fatehi,  Qingguo Feng,  J. Gayvert,  
 Qinghui Ge,  G. Gidofalvi,  M. Goldey,  J. Gomes,  C. Gonzalez-Espinoza,  
 S. Gulania,  A. Gunina,  M. W. D. Hanson-Heine,  P. H. P. Harbach,  
 A. W. Hauser,  M. F. Herbst,  M. Hernandez Vera,  M. Hodecker,  
 Z. C. Holden,  S. Houck,  Xunkun Huang,  Kerwin Hui,  B. C. Huynh,  
 M. Ivanov,  Hyunjun Ji,  Hanjie Jiang,  B. Kaduk,  S. Kaehler,  
 K. Khistyaev,  Jaehoon Kim,  P. Klunzinger,  Z. Koczor-Benda,  
 Joong Hoon Koh,  D. Kosenkov,  L. Koulias,  T. Kowalczyk,  C. M. Krauter,  
 K. Kue,  A. Kunitsa,  T. Kus,  A. Landau,  K. V. Lawler,  D. Lefrancois,  
 S. Lehtola,  Rain Li,  Yi-Pei Li,  Jiashu Liang,  M. Liebenthal,  
 Hung-Hsuan Lin,  You-Sheng Lin,  Fenglai Liu,  Kuan-Yu Liu,  
 M. Loipersberger,  A. Luenser,  A. Manjanath,  P. Manohar,  E. Mansoor,  
 S. F. Manzer,  Shan-Ping Mao,  A. V. Marenich,  T. Markovich,  S. Mason,  
 S. A. Maurer,  P. F. McLaughlin,  M. F. S. J. Menger,  J.-M. Mewes,  
 S. A. Mewes,  P. Morgante,  J. W. Mullinax,  T. S. Nguyen-Beck,  
 K. J. Oosterbaan,  G. Paran,  Alexander C. Paul,  Suranjan K. Paul,  
 F. Pavosevic,  Zheng Pei,  S. Prager,  E. I. Proynov,  E. Ramos,  B. Rana,  
 A. E. Rask,  A. Rettig,  R. M. Richard,  F. Rob,  E. Rossomme,  T. Scheele,  
 M. Scheurer,  M. Schneider,  N. Sergueev,  S. M. Sharada,  W. Skomorowski,  
 D. W. Small,  C. J. Stein,  Yu-Chuan Su,  E. J. Sundstrom,  Zhen Tao,  
 J. Thirman,  T. Tsuchimochi,  N. M. Tubman,  S. P. Veccham,  O. Vydrov,  
 J. Wenzel,  J. Witte,  A. Yamada,  Kun Yao,  S. Yeganeh,  S. R. Yost,  
 A. Zech,  Igor Ying Zhang,  Xing Zhang,  Yu Zhang,  D. Zuev,  
 A. Aspuru-Guzik,  A. T. Bell,  N. A. Besley,  K. B. Bravaya,  B. R. Brooks,  
 D. Casanova,  Jeng-Da Chai,  S. Coriani,  C. J. Cramer,  
 A. E. DePrince, III,  R. A. DiStasio Jr.,  A. Dreuw,  B. D. Dunietz,  
 T. R. Furlani,  W. A. Goddard III,  S. Grimme,  S. Hammes-Schiffer,  
 T. Head-Gordon,  W. J. Hehre,  Chao-Ping Hsu,  T.-C. Jagau,  Yousung Jung,  
 A. Klamt,  Jing Kong,  D. S. Lambrecht,  WanZhen Liang,  N. J. Mayhall,  
 C. W. McCurdy,  J. B. Neaton,  C. Ochsenfeld,  J. A. Parkhill,  R. Peverati,  
 V. A. Rassolov,  Yihan Shao,  L. V. Slipchenko,  T. Stauch,  R. P. Steele,  
 J. E. Subotnik,  A. J. W. Thom,  A. Tkatchenko,  D. G. Truhlar,  
 T. Van Voorhis,  T. A. Wesolowski,  K. B. Whaley,  H. L. Woodcock III,  
 P. M. Zimmerman,  S. Faraji,  P. M. W. Gill,  M. Head-Gordon,  
 J. M. Herbert,  A. I. Krylov

 Contributors to earlier versions of Q-Chem not listed above: 
 R. D. Adamson,  B. Austin,  R. Baer,  J. Baker,  G. J. O. Beran,  
 K. Brandhorst,  S. T. Brown,  E. F. C. Byrd,  A. K. Chakraborty,  
 G. K. L. Chan,  Chun-Min Chang,  Yunqing Chen,  C.-L. Cheng,  
 Siu Hung Chien,  D. M. Chipman,  D. L. Crittenden,  H. Dachsel,  
 R. J. Doerksen,  A. D. Dutoi,  R. G. Edgar,  J. Fosso-Tande,  
 L. Fusti-Molnar,  D. Ghosh,  A. Ghysels,  A. Golubeva-Zadorozhnaya,  
 J. Gonthier,  M. S. Gordon,  S. R. Gwaltney,  G. Hawkins,  J. E. Herr,  
 A. Heyden,  S. Hirata,  E. G. Hohenstein,  G. Kedziora,  F. J. Keil,  
 C. Kelley,  Jihan Kim,  R. A. King,  R. Z. Khaliullin,  P. P. Korambath,  
 W. Kurlancheek,  A. Laurent,  A. M. Lee,  M. S. Lee,  S. V. Levchenko,  
 Ching Yeh Lin,  D. Liotard,  E. Livshits,  R. C. Lochan,  I. Lotan,  
 L. A. Martinez-Martinez,  P. E. Maslen,  N. Nair,  D. P. O'Neill,  
 D. Neuhauser,  E. Neuscamman,  C. M. Oana,  R. Olivares-Amaya,  R. Olson,  
 T. M. Perrine,  B. Peters,  P. A. Pieniazek,  A. Prociuk,  Y. M. Rhee,  
 J. Ritchie,  M. A. Rohrdanz,  E. Rosta,  N. J. Russ,  H. F. Schaefer III,  
 M. W. Schmidt,  N. E. Schultz,  S. Sharma,  N. Shenvi,  C. D. Sherrill,  
 A. C. Simmonett,  A. Sodt,  T. Stein,  D. Stuck,  K. S. Thanthiriwatte,  
 V. Vanovschi,  L. Vogt,  Tao Wang,  A. Warshel,  M. A. Watson,  
 C. F. Williams,  Q. Wu,  X. Xu,  Jun Yang,  W. Zhang,  Yan Zhao

 Please cite Q-Chem as follows:
 Y. Shao et al., Mol. Phys. 113, 184-215 (2015)
 DOI: 10.1080/00268976.2014.952696

 Q-Chem 5.4.0 for Intel X86 EM64T Linux

 Parts of Q-Chem use Armadillo 9.800.1 (Horizon Scraper).
 http://arma.sourceforge.net/

 Q-Chem begins on Sun Jul 10 08:20:11 2022  

 Host: 
0

     Scratch files written to ./qchem2523505//
 May1621 |scratch|qcdevops|jenkins|workspace|build_RNUM    
 Processing $rem in /cm/shared/apps/spack/cpu/opt/spack/linux-centos8-zen2/gcc-10.2.0/qchem-5.4-akfmr7b3t57bfs6qan3padb2wnb2i7cl/config/preferences:
 Processing $rem in /home/theleonzhang/.qchemrc:
 Symmetry turned off for PCM/SM12/SMD calculation
 Core orbitals will be frozen

 Checking the input file for inconsistencies... 	...done.

--------------------------------------------------------------
User input:
--------------------------------------------------------------
$molecule
0 1
C	-0.130752	-0.566718	0.014458
C	0.019248	0.283782	1.113858
C	0.259548	1.646682	0.791158
H	-0.044852	-0.079418	2.150558
C	0.297948	1.863982	-0.598042
S	0.032948	0.361382	-1.472342
C	0.448448	2.717882	1.829058
H	0.374548	2.298682	2.851158
H	-0.316752	3.517182	1.740658
H	1.440948	3.207182	1.740658
C	0.119448	-1.985518	0.014458
H	-0.944252	-2.172718	0.014358
H	0.241648	-2.678618	-0.804742
H	0.209548	-2.496618	0.961558
H	0.462748	2.798682	-1.147142
$end

$rem
JOBTYPE		SP
EXCHANGE	HF
CORRELATION	pRIMP2
BASIS		cc-pvtz
METHOD		rimp2
AUX_BASIS	rimp2-cc-pvtz
SOLVENT_METHOD	PCM
PURECART	11111
SYMMETRY	false
MEM_TOTAL	110000
SCF_CONVERGENCE = 6
THRESH=10
$end



$solvent
dielectric 4.90
$end
--------------------------------------------------------------
 ----------------------------------------------------------------
             Standard Nuclear Orientation (Angstroms)
    I     Atom           X                Y                Z
 ----------------------------------------------------------------
    1      C      -0.1307520000    -0.5667180000     0.0144580000
    2      C       0.0192480000     0.2837820000     1.1138580000
    3      C       0.2595480000     1.6466820000     0.7911580000
    4      H      -0.0448520000    -0.0794180000     2.1505580000
    5      C       0.2979480000     1.8639820000    -0.5980420000
    6      S       0.0329480000     0.3613820000    -1.4723420000
    7      C       0.4484480000     2.7178820000     1.8290580000
    8      H       0.3745480000     2.2986820000     2.8511580000
    9      H      -0.3167520000     3.5171820000     1.7406580000
   10      H       1.4409480000     3.2071820000     1.7406580000
   11      C       0.1194480000    -1.9855180000     0.0144580000
   12      H      -0.9442520000    -2.1727180000     0.0143580000
   13      H       0.2416480000    -2.6786180000    -0.8047420000
   14      H       0.2095480000    -2.4966180000     0.9615580000
   15      H       0.4627480000     2.7986820000    -1.1471420000
 ----------------------------------------------------------------
 Nuclear Repulsion Energy =         344.78377673 hartrees
 There are       30 alpha and       30 beta electrons

 Q-Chem warning in module forms1/BasisType.C, line 2236:

 You are not using the predefined 5D/6D in this basis set.

 Requested basis set is cc-pVTZ
 There are 120 shells and 326 basis functions

 Total QAlloc Memory Limit 110000 MB
 Mega-Array Size       188 MB
 MEM_STATIC part       192 MB
 Discretize the solute cavity surface with Lebedev spheres
	Using 110 Lebedev grid points for each H atom
	Using 194 Lebedev grid points for other atoms
	Atomic van der Waals radii will be scaled by 1.20
 Remove points where switching function is < 1.0e-08
 Keep 1060 surface tesserae and discard 1178 interior tesserae
 Molecular Surface Area = 158.767 Angst**2

                       Distance Matrix (Angstroms)
             C (  1)   C (  2)   C (  3)   H (  4)   C (  5)   S (  6)
   C (  2)  1.398045
   C (  3)  2.377969  1.421047
   H (  4)  2.192661  1.100350  2.218118
   C (  5)  2.543077  2.346339  1.406617  3.383654
   S (  6)  1.760324  2.587400  2.612810  3.650447  1.758531
   C (  7)  3.796952  2.573046  1.503459  2.858600  2.577326  4.077373
   H (  8)  4.063584  2.684077  2.163777  2.514378  3.477328  4.749997
   H (  9)  4.437635  3.310687  2.175418  3.630080  2.929239  4.517160
   H ( 10)  4.437604  3.310646  2.175412  3.630063  2.929190  4.517124
   C ( 11)  1.440692  2.523577  3.716957  2.867601  3.902008  2.779568
   H ( 12)  1.800283  2.858605  4.079261  3.123168  4.267674  3.096265
   H ( 13)  2.295625  3.536425  4.610362  3.946102  4.547649  3.119430
   H ( 14)  2.176538  2.791063  4.147104  2.705789  4.631954  3.758087
   H ( 15)  3.609359  3.410797  2.263935  4.406353  1.096510  2.496180
             C (  7)   H (  8)   H (  9)   H ( 10)   C ( 11)   H ( 12)
   H (  8)  1.107194
   H (  9)  1.110057  1.787694
   H ( 10)  1.110083  1.787678  1.784828
   C ( 11)  5.052028  5.144542  5.783575  5.629410
   H ( 12)  5.399140  5.457113  5.979033  6.132912  1.080047
   H ( 13)  6.008484  6.177118  6.721518  6.523804  1.080004  1.527488
   H ( 14)  5.291563  5.156813  6.086853  5.886992  1.079972  1.527532
   H ( 15)  2.977331  4.030407  3.076240  3.076221  4.935153  5.295616
             H ( 13)   H ( 14)
   H ( 14)  1.775942
   H ( 15)  5.492444  5.705342
 
 Requested basis set is rimp2-cc-pVTZ
 There are 250 shells and 848 basis functions
 A cutoff of  1.0D-10 yielded   6172 shell pairs
 There are     45240 function pairs (     58170 Cartesian)
 Smallest overlap matrix eigenvalue = 1.07E-04

 Scale SEOQF with 1.000000e+00/1.000000e-01/1.000000e-01

 Standard Electronic Orientation quadrupole field applied
 Nucleus-field energy     =     0.0000000042 hartrees
 Guess from superposition of atomic densities
 Warning:  Energy on first SCF cycle will be non-variational
 SAD guess density has 60.000000 electrons

 -----------------------------------------------------------------------
  General SCF calculation program by
  Eric Jon Sundstrom, Paul Horn, Yuezhi Mao, Dmitri Zuev, Alec White,
  David Stuck, Shaama M.S., Shane Yost, Joonho Lee, David Small,
  Daniel Levine, Susi Lehtola, Hugh Burton, Evgeny Epifanovsky,
  Bang C. Huynh
 -----------------------------------------------------------------------
 Hartree-Fock
 A restricted SCF calculation will be
 performed using DIIS
 SCF converges when DIIS error is below 1.0e-06
 ---------------------------------------
  Cycle       Energy         DIIS error
 ---------------------------------------
    1    -632.1006613338      2.92e-02  
    2    -629.3323869636      1.94e-03  
    3    -629.4026187068      6.93e-04  
    4    -629.4102246709      3.57e-04  
    5    -629.4124502141      6.36e-05  
    6    -629.4125848750      2.59e-05  
    7    -629.4126172736      1.13e-05  
    8    -629.4126261305      5.16e-06  
    9    -629.4126276542      1.70e-06  
   10    -629.4126278461      6.33e-07  Convergence criterion met
 ---------------------------------------
 SCF time:   CPU 145.27s  wall 147.00s 

************** Final PCM Free Energy Summary **************
 G_electrostatic  =      -0.00580216 hartree =      -3.64091024 kcal/mol
 G_cavitation     =       0.00000000 hartree =       0.00000000 kcal/mol
 G_dispersion     =       0.00000000 hartree =       0.00000000 kcal/mol
 G_repulsion      =       0.00000000 hartree =       0.00000000 kcal/mol
 --------------------------------------------------
 Non-electrostatic Free Energy =       0.00000000 hartree =       0.00000000 kcal/mol
 Total                         =      -0.00580216 hartree =      -3.64091024 kcal/mol
 --------------------------------------------------
 SCF Energy (H0 + V/2)                       =    -629.41262785 
 Solute Internal Energy (H0)                 =    -629.40682569 
 Total Free Energy (H0 + V/2 + non-elec)     =    -629.41262785 hartree
                                             = -394962.38514041 kcal/mol
***********************************************************

 SCF   energy in the final basis set =     -629.4126278461
 Total energy in the final basis set =     -629.4126278461


 --------------------------------------------------------------
  Generalized many-body perturbation theory program
  by Joonho Lee, Fazle Rob, Xintian Feng, Evgeny Epifanovsky

 No regularization used 
 (reg. param. = 0.0000e+00)
  (P|Q)^-1/2 Time:  CPU 0.49 s  wall 0.49 s

 In RI-MP2 calculation: 
 # of frozen core orbitals: 11

 Components of the RIMP2 correlation energy:
        aaaa    correlation energy =        -0.1456291636 a.u.
        abab    correlation energy =        -0.8870835356 a.u.
        bbbb    correlation energy =        -0.1456291636 a.u.
        non-Brillouin singles      =        -0.0000000000 a.u.
        total same-spin energy     =        -0.2912583272 a.u.
        total opposite-spin energy =        -0.8870835356 a.u.

 Total  RIMP2   correlation energy =        -1.1783418628 a.u.
        RIMP2         total energy =      -630.5909697089 a.u.

 RI-MP2 Energy Time:  CPU 11.12 s  wall 11.15 s
 
 --------------------------------------------------------------
 
                    Orbital Energies (a.u.)
 --------------------------------------------------------------
 
 Alpha MOs
 -- Occupied --
-91.9768 -11.2815 -11.2513 -11.2471 -11.2265 -11.2262 -11.2190  -8.9768
 -6.6578  -6.6572  -6.6566  -1.1605  -1.0553  -0.9972  -0.9418  -0.8829
 -0.7440  -0.7195  -0.6462  -0.5880  -0.5734  -0.5719  -0.5524  -0.5452
 -0.5100  -0.4938  -0.4587  -0.4551  -0.3378  -0.2874
 -- Virtual --
  0.1072   0.1454   0.1480   0.1750   0.1888   0.1931   0.2095   0.2191
  0.2200   0.2398   0.2467   0.2581   0.2968   0.3210   0.3439   0.3537
  0.3850   0.3884   0.4069   0.4267   0.4348   0.4601   0.4699   0.4876
  0.5028   0.5066   0.5151   0.5302   0.5355   0.5621   0.5765   0.5853
  0.5993   0.6069   0.6156   0.6253   0.6343   0.6420   0.6449   0.6465
  0.6618   0.6723   0.6833   0.6920   0.7171   0.7485   0.7727   0.7931
  0.8020   0.8322   0.8436   0.8529   0.8668   0.8886   0.9046   0.9340
  0.9439   0.9770   1.0024   1.0151   1.0302   1.0565   1.0675   1.0760
  1.0858   1.0919   1.0978   1.1169   1.1380   1.1665   1.1758   1.2040
  1.2314   1.2427   1.2554   1.2670   1.2744   1.2992   1.3147   1.3467
  1.3618   1.3850   1.3902   1.4102   1.4350   1.4381   1.4466   1.4775
  1.4946   1.5021   1.5124   1.5323   1.5405   1.5565   1.5721   1.5933
  1.6015   1.6257   1.6496   1.6773   1.6811   1.6981   1.7244   1.7532
  1.7654   1.7962   1.8051   1.8288   1.8841   1.9208   1.9472   1.9650
  2.0185   2.0462   2.1048   2.1109   2.1752   2.1909   2.2261   2.2488
  2.2731   2.2963   2.3120   2.4126   2.4418   2.4836   2.5096   2.5356
  2.5655   2.6072   2.6258   2.6544   2.6790   2.6949   2.7221   2.7428
  2.7610   2.7674   2.7891   2.8038   2.8157   2.8256   2.8481   2.8608
  2.9012   2.9174   2.9664   2.9764   3.0158   3.0327   3.0582   3.0859
  3.0917   3.1069   3.1164   3.1324   3.1527   3.1613   3.1733   3.1871
  3.2025   3.2356   3.2724   3.2827   3.2903   3.3102   3.3185   3.3286
  3.3347   3.3598   3.3816   3.3866   3.3936   3.4004   3.4238   3.4401
  3.4460   3.4756   3.4839   3.4940   3.4983   3.5114   3.5330   3.5480
  3.5710   3.5969   3.6142   3.6262   3.6353   3.6427   3.6695   3.6748
  3.6875   3.7035   3.7198   3.7452   3.7597   3.7794   3.7894   3.8067
  3.8188   3.8425   3.8723   3.8761   3.9015   3.9252   3.9396   3.9526
  3.9709   3.9853   4.0222   4.0275   4.0356   4.0591   4.1020   4.1183
  4.1331   4.1502   4.1821   4.2104   4.2189   4.2233   4.2445   4.2735
  4.2892   4.3018   4.3140   4.3415   4.3466   4.3602   4.3915   4.4028
  4.4140   4.4273   4.4508   4.4620   4.4737   4.5100   4.5396   4.5508
  4.6139   4.6230   4.6387   4.6895   4.6975   4.7341   4.7503   4.7725
  4.8259   4.8433   4.8633   4.8887   4.9177   4.9641   5.0888   5.1114
  5.1240   5.1334   5.1456   5.1922   5.2064   5.2647   5.2863   5.3226
  5.3689   5.4066   5.4130   5.4472   5.4698   5.5144   5.5499   5.5633
  5.5811   5.6212   5.6327   5.6693   5.6990   5.8139   5.8195   5.8346
  5.9540   5.9786   6.0738   6.1844   6.2278   6.2521   6.3093   6.4017
  6.4256   6.5300   9.1858  11.3925  12.9028  13.7554  14.1760  14.4734
 --------------------------------------------------------------
 
          Ground-State Mulliken Net Atomic Charges

     Atom                 Charge (a.u.)
  ----------------------------------------
      1 C                     0.044159
      2 C                    -0.295912
      3 C                     0.050562
      4 H                     0.177579
      5 C                    -0.274886
      6 S                     0.000683
      7 C                    -0.271687
      8 H                     0.101280
      9 H                     0.107143
     10 H                     0.106983
     11 C                    -0.378357
     12 H                     0.136557
     13 H                     0.163009
     14 H                     0.140304
     15 H                     0.192583
  ----------------------------------------
  Sum of atomic charges =     0.000000

 -----------------------------------------------------------------
                    Cartesian Multipole Moments
 -----------------------------------------------------------------
    Charge (ESU x 10^10)
                -0.0000
    Dipole Moment (Debye)
         X      -0.2082      Y      -0.6532      Z       1.4482
       Tot       1.6022
    Quadrupole Moments (Debye-Ang)
        XX     -54.3509     XY       2.3826     YY     -41.7877
        XZ       0.0111     YZ       0.4583     ZZ     -48.4898
    Octopole Moments (Debye-Ang^2)
       XXX     -21.5102    XXY     -29.5468    XYY      -4.9027
       YYY     -82.2561    XXZ      -2.0416    XYZ      -0.3947
       YYZ      -5.1196    XZZ      -5.8499    YZZ     -25.9337
       ZZZ       1.0663
    Hexadecapole Moments (Debye-Ang^3)
      XXXX     -93.8593   XXXY     -44.3474   XXYY    -162.1201
      XYYY     -34.4318   YYYY    -790.5966   XXXZ     -15.7024
      XXYZ     -29.8816   XYYZ      -7.6196   YYYZ     -97.9597
      XXZZ    -104.3457   XYZZ     -12.0592   YYZZ    -207.1771
      XZZZ     -18.0258   YZZZ     -99.5956   ZZZZ    -483.9617
 -----------------------------------------------------------------
 Total job time:  160.96s(wall), 156.78s(cpu) 
 Sun Jul 10 08:22:52 2022

        *************************************************************
        *                                                           *
        *  Thank you very much for using Q-Chem.  Have a nice day.  *
        *                                                           *
        *************************************************************


remove work dirs ./qchem2523505.0 -- ./qchem2523505.-1
rm -rf ./qchem2523505
