You are running Q-Chem version: 5.4.0

#
# job setting
#
local host:  exp-1-06
current dir: /expanse/lustre/scratch/theleonzhang/temp_project/Hydrogenated_Impropers_Test
input file:  Methylthiophene_Phi_0_Theta_230_Methylthiophene_Hydrogenated_Improper_Alternate.qcin
output file: 
nprocs     : 0
nthreads   : 1
#
# qchem installation setting
#
QC:          /cm/shared/apps/spack/cpu/opt/spack/linux-centos8-zen2/gcc-10.2.0/qchem-5.4-akfmr7b3t57bfs6qan3padb2wnb2i7cl
QCAUX:       /cm/shared/apps/spack/cpu/opt/spack/linux-centos8-zen2/gcc-10.2.0/qchem-5.4-akfmr7b3t57bfs6qan3padb2wnb2i7cl/qcaux
QCPROG:      /cm/shared/apps/spack/cpu/opt/spack/linux-centos8-zen2/gcc-10.2.0/qchem-5.4-akfmr7b3t57bfs6qan3padb2wnb2i7cl/exe/qcprog.exe_s
QCPROG_S:    /cm/shared/apps/spack/cpu/opt/spack/linux-centos8-zen2/gcc-10.2.0/qchem-5.4-akfmr7b3t57bfs6qan3padb2wnb2i7cl/exe/qcprog.exe_s
PARALLEL:    -DSERIAL
QCMPI:       mpich
#
# qchem directory setting
#
qcrun:       qchem1886122
QCSCRATCH:   .
QCLOCALSCR:  
QCTMPDIR:    .
QCFILEPREF:  ./qchem1886122
QCSAVEDIR:   
workdirs:    ./qchem1886122
workdir0:    ./qchem1886122
partmpdirs =  
#
# parallel setting
#
QCRSH:           ssh
QCMPI:           mpich
QCMPIRUN:        /cm/shared/apps/spack/cpu/opt/spack/linux-centos8-zen2/gcc-10.2.0/qchem-5.4-akfmr7b3t57bfs6qan3padb2wnb2i7cl/bin/mpi/mpirun_qchem
QCMACHINEFILE:   ./qchem1886122/hostfile

#
# env setting
#
exported envs:   QC QCAUX QCSCRATCH QCRUNNAME QCFILEPREF QCPROG QCPROG_S GUIFILE

Running Job 1 of 1 Methylthiophene_Phi_0_Theta_230_Methylthiophene_Hydrogenated_Improper_Alternate.qcin
qchem Methylthiophene_Phi_0_Theta_230_Methylthiophene_Hydrogenated_Improper_Alternate.qcin_1886122.0 ./qchem1886122/ 0
/cm/shared/apps/spack/cpu/opt/spack/linux-centos8-zen2/gcc-10.2.0/qchem-5.4-akfmr7b3t57bfs6qan3padb2wnb2i7cl/exe/qcprog.exe_s Methylthiophene_Phi_0_Theta_230_Methylthiophene_Hydrogenated_Improper_Alternate.qcin_1886122.0 ./qchem1886122/
                  Welcome to Q-Chem
     A Quantum Leap Into The Future Of Chemistry


 Q-Chem 5.4, Q-Chem, Inc., Pleasanton, CA (2021)

 License issued to: University of California, San Diego (site)

 E. Epifanovsky,  A. T. B. Gilbert,  Xintian Feng,  Joonho Lee,  Yuezhi Mao,  
 N. Mardirossian,  P. Pokhilko,  A. White,  M. Wormit,  M. P. Coons,  
 A. L. Dempwolff,  Zhengting Gan,  D. Hait,  P. R. Horn,  L. D. Jacobson,  
 I. Kaliman,  J. Kussmann,  A. W. Lange,  Ka Un Lao,  D. S. Levine,  Jie Liu,  
 S. C. McKenzie,  A. F. Morrison,  K. Nanda,  F. Plasser,  D. R. Rehn,  
 M. L. Vidal,  Zhi-Qiang You,  Ying Zhu,  B. Alam,  B. Albrecht,  
 A. Aldossary,  E. Alguire,  J. H. Andersen,  D. Barton,  K. Begam,  A. Behn,  
 Y. A. Bernard,  E. J. Berquist,  H. Burton,  A. Carreras,  K. Carter-Fenk,  
 R. Chakraborty,  A. D. Chien,  K. D. Closser,  V. Cofer-Shabica,  
 S. Dasgupta,  Jia Deng,  M. de Wergifosse,  M. Diedenhofen,  Hainam Do,  
 S. Ehlert,  Po-Tung Fang,  S. Fatehi,  Qingguo Feng,  J. Gayvert,  
 Qinghui Ge,  G. Gidofalvi,  M. Goldey,  J. Gomes,  C. Gonzalez-Espinoza,  
 S. Gulania,  A. Gunina,  M. W. D. Hanson-Heine,  P. H. P. Harbach,  
 A. W. Hauser,  M. F. Herbst,  M. Hernandez Vera,  M. Hodecker,  
 Z. C. Holden,  S. Houck,  Xunkun Huang,  Kerwin Hui,  B. C. Huynh,  
 M. Ivanov,  Hyunjun Ji,  Hanjie Jiang,  B. Kaduk,  S. Kaehler,  
 K. Khistyaev,  Jaehoon Kim,  P. Klunzinger,  Z. Koczor-Benda,  
 Joong Hoon Koh,  D. Kosenkov,  L. Koulias,  T. Kowalczyk,  C. M. Krauter,  
 K. Kue,  A. Kunitsa,  T. Kus,  A. Landau,  K. V. Lawler,  D. Lefrancois,  
 S. Lehtola,  Rain Li,  Yi-Pei Li,  Jiashu Liang,  M. Liebenthal,  
 Hung-Hsuan Lin,  You-Sheng Lin,  Fenglai Liu,  Kuan-Yu Liu,  
 M. Loipersberger,  A. Luenser,  A. Manjanath,  P. Manohar,  E. Mansoor,  
 S. F. Manzer,  Shan-Ping Mao,  A. V. Marenich,  T. Markovich,  S. Mason,  
 S. A. Maurer,  P. F. McLaughlin,  M. F. S. J. Menger,  J.-M. Mewes,  
 S. A. Mewes,  P. Morgante,  J. W. Mullinax,  T. S. Nguyen-Beck,  
 K. J. Oosterbaan,  G. Paran,  Alexander C. Paul,  Suranjan K. Paul,  
 F. Pavosevic,  Zheng Pei,  S. Prager,  E. I. Proynov,  E. Ramos,  B. Rana,  
 A. E. Rask,  A. Rettig,  R. M. Richard,  F. Rob,  E. Rossomme,  T. Scheele,  
 M. Scheurer,  M. Schneider,  N. Sergueev,  S. M. Sharada,  W. Skomorowski,  
 D. W. Small,  C. J. Stein,  Yu-Chuan Su,  E. J. Sundstrom,  Zhen Tao,  
 J. Thirman,  T. Tsuchimochi,  N. M. Tubman,  S. P. Veccham,  O. Vydrov,  
 J. Wenzel,  J. Witte,  A. Yamada,  Kun Yao,  S. Yeganeh,  S. R. Yost,  
 A. Zech,  Igor Ying Zhang,  Xing Zhang,  Yu Zhang,  D. Zuev,  
 A. Aspuru-Guzik,  A. T. Bell,  N. A. Besley,  K. B. Bravaya,  B. R. Brooks,  
 D. Casanova,  Jeng-Da Chai,  S. Coriani,  C. J. Cramer,  
 A. E. DePrince, III,  R. A. DiStasio Jr.,  A. Dreuw,  B. D. Dunietz,  
 T. R. Furlani,  W. A. Goddard III,  S. Grimme,  S. Hammes-Schiffer,  
 T. Head-Gordon,  W. J. Hehre,  Chao-Ping Hsu,  T.-C. Jagau,  Yousung Jung,  
 A. Klamt,  Jing Kong,  D. S. Lambrecht,  WanZhen Liang,  N. J. Mayhall,  
 C. W. McCurdy,  J. B. Neaton,  C. Ochsenfeld,  J. A. Parkhill,  R. Peverati,  
 V. A. Rassolov,  Yihan Shao,  L. V. Slipchenko,  T. Stauch,  R. P. Steele,  
 J. E. Subotnik,  A. J. W. Thom,  A. Tkatchenko,  D. G. Truhlar,  
 T. Van Voorhis,  T. A. Wesolowski,  K. B. Whaley,  H. L. Woodcock III,  
 P. M. Zimmerman,  S. Faraji,  P. M. W. Gill,  M. Head-Gordon,  
 J. M. Herbert,  A. I. Krylov

 Contributors to earlier versions of Q-Chem not listed above: 
 R. D. Adamson,  B. Austin,  R. Baer,  J. Baker,  G. J. O. Beran,  
 K. Brandhorst,  S. T. Brown,  E. F. C. Byrd,  A. K. Chakraborty,  
 G. K. L. Chan,  Chun-Min Chang,  Yunqing Chen,  C.-L. Cheng,  
 Siu Hung Chien,  D. M. Chipman,  D. L. Crittenden,  H. Dachsel,  
 R. J. Doerksen,  A. D. Dutoi,  R. G. Edgar,  J. Fosso-Tande,  
 L. Fusti-Molnar,  D. Ghosh,  A. Ghysels,  A. Golubeva-Zadorozhnaya,  
 J. Gonthier,  M. S. Gordon,  S. R. Gwaltney,  G. Hawkins,  J. E. Herr,  
 A. Heyden,  S. Hirata,  E. G. Hohenstein,  G. Kedziora,  F. J. Keil,  
 C. Kelley,  Jihan Kim,  R. A. King,  R. Z. Khaliullin,  P. P. Korambath,  
 W. Kurlancheek,  A. Laurent,  A. M. Lee,  M. S. Lee,  S. V. Levchenko,  
 Ching Yeh Lin,  D. Liotard,  E. Livshits,  R. C. Lochan,  I. Lotan,  
 L. A. Martinez-Martinez,  P. E. Maslen,  N. Nair,  D. P. O'Neill,  
 D. Neuhauser,  E. Neuscamman,  C. M. Oana,  R. Olivares-Amaya,  R. Olson,  
 T. M. Perrine,  B. Peters,  P. A. Pieniazek,  A. Prociuk,  Y. M. Rhee,  
 J. Ritchie,  M. A. Rohrdanz,  E. Rosta,  N. J. Russ,  H. F. Schaefer III,  
 M. W. Schmidt,  N. E. Schultz,  S. Sharma,  N. Shenvi,  C. D. Sherrill,  
 A. C. Simmonett,  A. Sodt,  T. Stein,  D. Stuck,  K. S. Thanthiriwatte,  
 V. Vanovschi,  L. Vogt,  Tao Wang,  A. Warshel,  M. A. Watson,  
 C. F. Williams,  Q. Wu,  X. Xu,  Jun Yang,  W. Zhang,  Yan Zhao

 Please cite Q-Chem as follows:
 Y. Shao et al., Mol. Phys. 113, 184-215 (2015)
 DOI: 10.1080/00268976.2014.952696

 Q-Chem 5.4.0 for Intel X86 EM64T Linux

 Parts of Q-Chem use Armadillo 9.800.1 (Horizon Scraper).
 http://arma.sourceforge.net/

 Q-Chem begins on Sun Jul 10 10:12:43 2022  

 Host: 
0

     Scratch files written to ./qchem1886122//
 May1621 |scratch|qcdevops|jenkins|workspace|build_RNUM    
 Processing $rem in /cm/shared/apps/spack/cpu/opt/spack/linux-centos8-zen2/gcc-10.2.0/qchem-5.4-akfmr7b3t57bfs6qan3padb2wnb2i7cl/config/preferences:
 Processing $rem in /home/theleonzhang/.qchemrc:
 Symmetry turned off for PCM/SM12/SMD calculation
 Core orbitals will be frozen

 Checking the input file for inconsistencies... 	...done.

--------------------------------------------------------------
User input:
--------------------------------------------------------------
$molecule
0 1
C	0.002661	-0.576309	0.019119
C	0.002661	0.287291	1.118519
C	0.002761	1.671191	0.795819
H	0.002661	-0.081509	2.155219
C	0.002761	1.891891	-0.593381
S	0.002661	0.366091	-1.467681
C	0.002761	2.758991	1.833719
H	0.002761	2.333291	2.855819
H	-0.889639	3.413291	1.745319
H	0.895161	3.413191	1.745319
C	0.002661	-2.017009	0.019119
H	-0.691439	-2.017209	-0.808281
H	-0.624939	-2.720809	0.545619
H	0.728161	-2.535909	-0.589681
H	0.002761	2.841091	-1.142481
$end

$rem
JOBTYPE		SP
EXCHANGE	HF
CORRELATION	pRIMP2
BASIS		cc-pvtz
METHOD		rimp2
AUX_BASIS	rimp2-cc-pvtz
SOLVENT_METHOD	PCM
PURECART	11111
SYMMETRY	false
MEM_TOTAL	110000
SCF_CONVERGENCE = 6
THRESH=10
$end



$solvent
dielectric 4.90
$end
--------------------------------------------------------------
 ----------------------------------------------------------------
             Standard Nuclear Orientation (Angstroms)
    I     Atom           X                Y                Z
 ----------------------------------------------------------------
    1      C       0.0026610000    -0.5763090000     0.0191190000
    2      C       0.0026610000     0.2872910000     1.1185190000
    3      C       0.0027610000     1.6711910000     0.7958190000
    4      H       0.0026610000    -0.0815090000     2.1552190000
    5      C       0.0027610000     1.8918910000    -0.5933810000
    6      S       0.0026610000     0.3660910000    -1.4676810000
    7      C       0.0027610000     2.7589910000     1.8337190000
    8      H       0.0027610000     2.3332910000     2.8558190000
    9      H      -0.8896390000     3.4132910000     1.7453190000
   10      H       0.8951610000     3.4131910000     1.7453190000
   11      C       0.0026610000    -2.0170090000     0.0191190000
   12      H      -0.6914390000    -2.0172090000    -0.8082810000
   13      H      -0.6249390000    -2.7208090000     0.5456190000
   14      H       0.7281610000    -2.5359090000    -0.5896810000
   15      H       0.0027610000     2.8410910000    -1.1424810000
 ----------------------------------------------------------------
 Nuclear Repulsion Energy =         344.62270256 hartrees
 There are       30 alpha and       30 beta electrons

 Q-Chem warning in module forms1/BasisType.C, line 2236:

 You are not using the predefined 5D/6D in this basis set.

 Requested basis set is cc-pVTZ
 There are 120 shells and 326 basis functions

 Total QAlloc Memory Limit 110000 MB
 Mega-Array Size       188 MB
 MEM_STATIC part       192 MB
 Discretize the solute cavity surface with Lebedev spheres
	Using 110 Lebedev grid points for each H atom
	Using 194 Lebedev grid points for other atoms
	Atomic van der Waals radii will be scaled by 1.20
 Remove points where switching function is < 1.0e-08
 Keep 1063 surface tesserae and discard 1175 interior tesserae
 Molecular Surface Area = 159.223 Angst**2

                       Distance Matrix (Angstroms)
             C (  1)   C (  2)   C (  3)   H (  4)   C (  5)   S (  6)
   C (  2)  1.398029
   C (  3)  2.377923  1.421026
   H (  4)  2.192658  1.100346  2.218091
   C (  5)  2.543063  2.346347  1.406622  3.383653
   S (  6)  1.760310  2.587400  2.612799  3.650445  1.758541
   C (  7)  3.796972  2.573094  1.503511  2.858636  2.577339  4.077403
   H (  8)  4.063575  2.684088  2.163788  2.514379  3.477329  4.750003
   H (  9)  4.437665  3.310733  2.175509  3.630130  2.929258  4.517189
   H ( 10)  4.437616  3.310693  2.175429  3.630083  2.929206  4.517161
   C ( 11)  1.440700  2.553131  3.769096  2.882548  3.956596  2.808868
   H ( 12)  1.800711  3.083027  4.081586  3.607082  3.976073  2.568405
   H ( 13)  2.295640  3.125822  4.443678  3.154457  4.792529  3.738477
   H ( 14)  2.176470  3.378573  4.488375  3.752986  4.486829  3.117505
   H ( 15)  3.609423  3.410867  2.263995  4.406406  1.096582  2.496273
             C (  7)   H (  8)   H (  9)   H ( 10)   C ( 11)   H ( 12)
   H (  8)  1.107208
   H (  9)  1.110090  1.787733
   H ( 10)  1.110032  1.787672  1.784800
   C ( 11)  5.109105  5.193455  5.767506  5.767443
   H ( 12)  5.502196  5.730130  6.004206  6.207046  1.079984
   H ( 13)  5.664046  5.592402  6.255920  6.432413  1.080009  1.527259
   H ( 14)  5.868138  6.008892  6.592608  6.393114  1.079928  1.527121
   H ( 15)  2.977332  4.030417  3.076228  3.076210  4.995043  4.919012
             H ( 13)   H ( 14)
   H ( 14)  1.775943
   H ( 15)  5.846231  5.453799
 
 Requested basis set is rimp2-cc-pVTZ
 There are 250 shells and 848 basis functions
 A cutoff of  1.0D-10 yielded   6163 shell pairs
 There are     45101 function pairs (     57996 Cartesian)
 Smallest overlap matrix eigenvalue = 9.24E-05

 Scale SEOQF with 1.000000e+00/1.000000e-01/1.000000e-01

 Standard Electronic Orientation quadrupole field applied
 Nucleus-field energy     =     0.0000000034 hartrees
 Guess from superposition of atomic densities
 Warning:  Energy on first SCF cycle will be non-variational
 SAD guess density has 60.000000 electrons

 -----------------------------------------------------------------------
  General SCF calculation program by
  Eric Jon Sundstrom, Paul Horn, Yuezhi Mao, Dmitri Zuev, Alec White,
  David Stuck, Shaama M.S., Shane Yost, Joonho Lee, David Small,
  Daniel Levine, Susi Lehtola, Hugh Burton, Evgeny Epifanovsky,
  Bang C. Huynh
 -----------------------------------------------------------------------
 Hartree-Fock
 A restricted SCF calculation will be
 performed using DIIS
 SCF converges when DIIS error is below 1.0e-06
 ---------------------------------------
  Cycle       Energy         DIIS error
 ---------------------------------------
    1    -632.1025507167      2.92e-02  
    2    -629.3415656438      1.95e-03  
    3    -629.4121466278      6.98e-04  
    4    -629.4198507780      3.53e-04  
    5    -629.4220612578      6.41e-05  
    6    -629.4221991975      2.65e-05  
    7    -629.4222339820      1.16e-05  
    8    -629.4222435600      5.12e-06  
    9    -629.4222450185      1.71e-06  
   10    -629.4222451989      6.18e-07  Convergence criterion met
 ---------------------------------------
 SCF time:   CPU 144.19s  wall 146.00s 

************** Final PCM Free Energy Summary **************
 G_electrostatic  =      -0.00534979 hartree =      -3.35704220 kcal/mol
 G_cavitation     =       0.00000000 hartree =       0.00000000 kcal/mol
 G_dispersion     =       0.00000000 hartree =       0.00000000 kcal/mol
 G_repulsion      =       0.00000000 hartree =       0.00000000 kcal/mol
 --------------------------------------------------
 Non-electrostatic Free Energy =       0.00000000 hartree =       0.00000000 kcal/mol
 Total                         =      -0.00534979 hartree =      -3.35704220 kcal/mol
 --------------------------------------------------
 SCF Energy (H0 + V/2)                       =    -629.42224520 
 Solute Internal Energy (H0)                 =    -629.41689541 
 Total Free Energy (H0 + V/2 + non-elec)     =    -629.42224520 hartree
                                             = -394968.42012038 kcal/mol
***********************************************************

 SCF   energy in the final basis set =     -629.4222451989
 Total energy in the final basis set =     -629.4222451989


 --------------------------------------------------------------
  Generalized many-body perturbation theory program
  by Joonho Lee, Fazle Rob, Xintian Feng, Evgeny Epifanovsky

 No regularization used 
 (reg. param. = 0.0000e+00)
  (P|Q)^-1/2 Time:  CPU 0.49 s  wall 0.49 s

 In RI-MP2 calculation: 
 # of frozen core orbitals: 11

 Components of the RIMP2 correlation energy:
        aaaa    correlation energy =        -0.1452527172 a.u.
        abab    correlation energy =        -0.8858437984 a.u.
        bbbb    correlation energy =        -0.1452527172 a.u.
        non-Brillouin singles      =        -0.0000000000 a.u.
        total same-spin energy     =        -0.2905054343 a.u.
        total opposite-spin energy =        -0.8858437984 a.u.

 Total  RIMP2   correlation energy =        -1.1763492327 a.u.
        RIMP2         total energy =      -630.5985944316 a.u.

 RI-MP2 Energy Time:  CPU 11.29 s  wall 11.36 s
 
 --------------------------------------------------------------
 
                    Orbital Energies (a.u.)
 --------------------------------------------------------------
 
 Alpha MOs
 -- Occupied --
-91.9794 -11.2794 -11.2545 -11.2468 -11.2266 -11.2266 -11.2182  -8.9793
 -6.6602  -6.6597  -6.6591  -1.1606  -1.0556  -0.9956  -0.9455  -0.8818
 -0.7465  -0.7182  -0.6488  -0.5902  -0.5754  -0.5654  -0.5535  -0.5473
 -0.5083  -0.4890  -0.4651  -0.4506  -0.3392  -0.2967
 -- Virtual --
  0.1072   0.1428   0.1495   0.1750   0.1888   0.1927   0.2033   0.2265
  0.2355   0.2409   0.2500   0.2589   0.2901   0.3257   0.3428   0.3490
  0.3832   0.3941   0.4034   0.4196   0.4377   0.4659   0.4696   0.4867
  0.4959   0.4978   0.5211   0.5270   0.5423   0.5593   0.5874   0.5908
  0.6009   0.6078   0.6105   0.6132   0.6291   0.6396   0.6442   0.6498
  0.6567   0.6697   0.6884   0.7143   0.7341   0.7398   0.7734   0.7876
  0.8032   0.8290   0.8410   0.8529   0.8716   0.8969   0.9179   0.9390
  0.9425   0.9700   0.9775   1.0127   1.0340   1.0437   1.0641   1.0660
  1.0824   1.0831   1.1034   1.1495   1.1627   1.1845   1.1978   1.2121
  1.2249   1.2361   1.2568   1.2629   1.2727   1.2893   1.3058   1.3222
  1.3673   1.3897   1.3951   1.4114   1.4242   1.4355   1.4514   1.4811
  1.5003   1.5181   1.5314   1.5378   1.5520   1.5628   1.5757   1.5846
  1.6087   1.6277   1.6519   1.6814   1.6901   1.6956   1.7131   1.7422
  1.7515   1.7903   1.8195   1.8317   1.8896   1.9036   1.9224   1.9614
  2.0162   2.0412   2.0911   2.1364   2.1856   2.1984   2.2206   2.2542
  2.2614   2.2980   2.3620   2.4184   2.4593   2.4989   2.5040   2.5449
  2.5662   2.6071   2.6280   2.6580   2.6834   2.7035   2.7156   2.7303
  2.7418   2.7570   2.7691   2.7896   2.8031   2.8498   2.8508   2.8969
  2.9098   2.9324   2.9612   2.9777   2.9921   3.0308   3.0441   3.0588
  3.0716   3.0898   3.1142   3.1350   3.1552   3.1655   3.1727   3.1972
  3.2342   3.2429   3.2570   3.2746   3.2866   3.3018   3.3115   3.3234
  3.3481   3.3708   3.3719   3.3803   3.3984   3.4263   3.4284   3.4363
  3.4544   3.4760   3.4960   3.5019   3.5104   3.5190   3.5371   3.5708
  3.5826   3.5963   3.6110   3.6204   3.6269   3.6345   3.6585   3.6720
  3.6922   3.7091   3.7150   3.7352   3.7656   3.7869   3.7923   3.7994
  3.8086   3.8310   3.8530   3.8855   3.9132   3.9228   3.9385   3.9626
  3.9768   3.9819   4.0121   4.0259   4.0310   4.0558   4.0811   4.1048
  4.1199   4.1475   4.1591   4.1846   4.1950   4.2250   4.2430   4.2463
  4.2794   4.2929   4.3099   4.3333   4.3402   4.3527   4.3949   4.4026
  4.4175   4.4261   4.4457   4.4635   4.4703   4.4827   4.5452   4.5656
  4.5998   4.6161   4.6328   4.6600   4.7132   4.7380   4.7683   4.7836
  4.8003   4.8329   4.8504   4.8928   4.9253   4.9642   5.0665   5.1044
  5.1055   5.1666   5.1834   5.1993   5.2478   5.2611   5.2879   5.3254
  5.3688   5.4067   5.4209   5.4424   5.4828   5.5043   5.5589   5.5680
  5.5900   5.6177   5.6232   5.6939   5.7123   5.8279   5.8399   5.8671
  5.9162   6.0377   6.0422   6.1329   6.2273   6.2558   6.3144   6.3561
  6.4683   6.5395   9.2033  11.4351  12.9577  13.8852  14.1874  14.5048
 --------------------------------------------------------------
 
          Ground-State Mulliken Net Atomic Charges

     Atom                 Charge (a.u.)
  ----------------------------------------
      1 C                     0.055417
      2 C                    -0.279620
      3 C                     0.041244
      4 H                     0.180721
      5 C                    -0.262047
      6 S                    -0.003951
      7 C                    -0.273558
      8 H                     0.101597
      9 H                     0.107012
     10 H                     0.107222
     11 C                    -0.375382
     12 H                     0.121199
     13 H                     0.156552
     14 H                     0.129063
     15 H                     0.194531
  ----------------------------------------
  Sum of atomic charges =     0.000000

 -----------------------------------------------------------------
                    Cartesian Multipole Moments
 -----------------------------------------------------------------
    Charge (ESU x 10^10)
                -0.0000
    Dipole Moment (Debye)
         X      -0.4274      Y      -0.2661      Z       0.9352
       Tot       1.0621
    Quadrupole Moments (Debye-Ang)
        XX     -53.9914     XY       1.0573     YY     -41.9367
        XZ      -0.3145     YZ       1.2194     ZZ     -48.7580
    Octopole Moments (Debye-Ang^2)
       XXX       0.4319    XXY     -32.2592    XYY      -2.5194
       YYY     -80.2501    XXZ      -1.7338    XYZ       1.2372
       YYZ      -6.2575    XZZ       0.1952    YZZ     -24.3815
       ZZZ       1.9176
    Hexadecapole Moments (Debye-Ang^3)
      XXXX     -78.8198   XXXY      -1.9502   XXYY    -159.5765
      XYYY       5.1475   YYYY    -811.5224   XXXZ       0.0924
      XXYZ     -31.1350   XYYZ      -3.7364   YYYZ    -104.7659
      XXZZ    -101.3576   XYZZ      -0.8046   YYZZ    -215.0524
      XZZZ       0.5597   YZZZ    -104.3387   ZZZZ    -483.3154
 -----------------------------------------------------------------
 Total job time:  158.64s(wall), 155.85s(cpu) 
 Sun Jul 10 10:15:21 2022

        *************************************************************
        *                                                           *
        *  Thank you very much for using Q-Chem.  Have a nice day.  *
        *                                                           *
        *************************************************************


remove work dirs ./qchem1886122.0 -- ./qchem1886122.-1
rm -rf ./qchem1886122
You are running Q-Chem version: 5.4.0

#
# job setting
#
local host:  exp-12-30
current dir: /expanse/lustre/scratch/theleonzhang/temp_project/Hydrogenated_Impropers_Test
input file:  Methylthiophene_Phi_0_Theta_230_Methylthiophene_Hydrogenated_Improper_Alternate.qcin
output file: 
nprocs     : 0
nthreads   : 1
#
# qchem installation setting
#
QC:          /cm/shared/apps/spack/cpu/opt/spack/linux-centos8-zen2/gcc-10.2.0/qchem-5.4-akfmr7b3t57bfs6qan3padb2wnb2i7cl
QCAUX:       /cm/shared/apps/spack/cpu/opt/spack/linux-centos8-zen2/gcc-10.2.0/qchem-5.4-akfmr7b3t57bfs6qan3padb2wnb2i7cl/qcaux
QCPROG:      /cm/shared/apps/spack/cpu/opt/spack/linux-centos8-zen2/gcc-10.2.0/qchem-5.4-akfmr7b3t57bfs6qan3padb2wnb2i7cl/exe/qcprog.exe_s
QCPROG_S:    /cm/shared/apps/spack/cpu/opt/spack/linux-centos8-zen2/gcc-10.2.0/qchem-5.4-akfmr7b3t57bfs6qan3padb2wnb2i7cl/exe/qcprog.exe_s
PARALLEL:    -DSERIAL
QCMPI:       mpich
#
# qchem directory setting
#
qcrun:       qchem878238
QCSCRATCH:   .
QCLOCALSCR:  
QCTMPDIR:    .
QCFILEPREF:  ./qchem878238
QCSAVEDIR:   
workdirs:    ./qchem878238
workdir0:    ./qchem878238
partmpdirs =  
#
# parallel setting
#
QCRSH:           ssh
QCMPI:           mpich
QCMPIRUN:        /cm/shared/apps/spack/cpu/opt/spack/linux-centos8-zen2/gcc-10.2.0/qchem-5.4-akfmr7b3t57bfs6qan3padb2wnb2i7cl/bin/mpi/mpirun_qchem
QCMACHINEFILE:   ./qchem878238/hostfile

#
# env setting
#
exported envs:   QC QCAUX QCSCRATCH QCRUNNAME QCFILEPREF QCPROG QCPROG_S GUIFILE

Running Job 1 of 1 Methylthiophene_Phi_0_Theta_230_Methylthiophene_Hydrogenated_Improper_Alternate.qcin
qchem Methylthiophene_Phi_0_Theta_230_Methylthiophene_Hydrogenated_Improper_Alternate.qcin_878238.0 ./qchem878238/ 0
/cm/shared/apps/spack/cpu/opt/spack/linux-centos8-zen2/gcc-10.2.0/qchem-5.4-akfmr7b3t57bfs6qan3padb2wnb2i7cl/exe/qcprog.exe_s Methylthiophene_Phi_0_Theta_230_Methylthiophene_Hydrogenated_Improper_Alternate.qcin_878238.0 ./qchem878238/
                  Welcome to Q-Chem
     A Quantum Leap Into The Future Of Chemistry


 Q-Chem 5.4, Q-Chem, Inc., Pleasanton, CA (2021)

 License issued to: University of California, San Diego (site)

 E. Epifanovsky,  A. T. B. Gilbert,  Xintian Feng,  Joonho Lee,  Yuezhi Mao,  
 N. Mardirossian,  P. Pokhilko,  A. White,  M. Wormit,  M. P. Coons,  
 A. L. Dempwolff,  Zhengting Gan,  D. Hait,  P. R. Horn,  L. D. Jacobson,  
 I. Kaliman,  J. Kussmann,  A. W. Lange,  Ka Un Lao,  D. S. Levine,  Jie Liu,  
 S. C. McKenzie,  A. F. Morrison,  K. Nanda,  F. Plasser,  D. R. Rehn,  
 M. L. Vidal,  Zhi-Qiang You,  Ying Zhu,  B. Alam,  B. Albrecht,  
 A. Aldossary,  E. Alguire,  J. H. Andersen,  D. Barton,  K. Begam,  A. Behn,  
 Y. A. Bernard,  E. J. Berquist,  H. Burton,  A. Carreras,  K. Carter-Fenk,  
 R. Chakraborty,  A. D. Chien,  K. D. Closser,  V. Cofer-Shabica,  
 S. Dasgupta,  Jia Deng,  M. de Wergifosse,  M. Diedenhofen,  Hainam Do,  
 S. Ehlert,  Po-Tung Fang,  S. Fatehi,  Qingguo Feng,  J. Gayvert,  
 Qinghui Ge,  G. Gidofalvi,  M. Goldey,  J. Gomes,  C. Gonzalez-Espinoza,  
 S. Gulania,  A. Gunina,  M. W. D. Hanson-Heine,  P. H. P. Harbach,  
 A. W. Hauser,  M. F. Herbst,  M. Hernandez Vera,  M. Hodecker,  
 Z. C. Holden,  S. Houck,  Xunkun Huang,  Kerwin Hui,  B. C. Huynh,  
 M. Ivanov,  Hyunjun Ji,  Hanjie Jiang,  B. Kaduk,  S. Kaehler,  
 K. Khistyaev,  Jaehoon Kim,  P. Klunzinger,  Z. Koczor-Benda,  
 Joong Hoon Koh,  D. Kosenkov,  L. Koulias,  T. Kowalczyk,  C. M. Krauter,  
 K. Kue,  A. Kunitsa,  T. Kus,  A. Landau,  K. V. Lawler,  D. Lefrancois,  
 S. Lehtola,  Rain Li,  Yi-Pei Li,  Jiashu Liang,  M. Liebenthal,  
 Hung-Hsuan Lin,  You-Sheng Lin,  Fenglai Liu,  Kuan-Yu Liu,  
 M. Loipersberger,  A. Luenser,  A. Manjanath,  P. Manohar,  E. Mansoor,  
 S. F. Manzer,  Shan-Ping Mao,  A. V. Marenich,  T. Markovich,  S. Mason,  
 S. A. Maurer,  P. F. McLaughlin,  M. F. S. J. Menger,  J.-M. Mewes,  
 S. A. Mewes,  P. Morgante,  J. W. Mullinax,  T. S. Nguyen-Beck,  
 K. J. Oosterbaan,  G. Paran,  Alexander C. Paul,  Suranjan K. Paul,  
 F. Pavosevic,  Zheng Pei,  S. Prager,  E. I. Proynov,  E. Ramos,  B. Rana,  
 A. E. Rask,  A. Rettig,  R. M. Richard,  F. Rob,  E. Rossomme,  T. Scheele,  
 M. Scheurer,  M. Schneider,  N. Sergueev,  S. M. Sharada,  W. Skomorowski,  
 D. W. Small,  C. J. Stein,  Yu-Chuan Su,  E. J. Sundstrom,  Zhen Tao,  
 J. Thirman,  T. Tsuchimochi,  N. M. Tubman,  S. P. Veccham,  O. Vydrov,  
 J. Wenzel,  J. Witte,  A. Yamada,  Kun Yao,  S. Yeganeh,  S. R. Yost,  
 A. Zech,  Igor Ying Zhang,  Xing Zhang,  Yu Zhang,  D. Zuev,  
 A. Aspuru-Guzik,  A. T. Bell,  N. A. Besley,  K. B. Bravaya,  B. R. Brooks,  
 D. Casanova,  Jeng-Da Chai,  S. Coriani,  C. J. Cramer,  
 A. E. DePrince, III,  R. A. DiStasio Jr.,  A. Dreuw,  B. D. Dunietz,  
 T. R. Furlani,  W. A. Goddard III,  S. Grimme,  S. Hammes-Schiffer,  
 T. Head-Gordon,  W. J. Hehre,  Chao-Ping Hsu,  T.-C. Jagau,  Yousung Jung,  
 A. Klamt,  Jing Kong,  D. S. Lambrecht,  WanZhen Liang,  N. J. Mayhall,  
 C. W. McCurdy,  J. B. Neaton,  C. Ochsenfeld,  J. A. Parkhill,  R. Peverati,  
 V. A. Rassolov,  Yihan Shao,  L. V. Slipchenko,  T. Stauch,  R. P. Steele,  
 J. E. Subotnik,  A. J. W. Thom,  A. Tkatchenko,  D. G. Truhlar,  
 T. Van Voorhis,  T. A. Wesolowski,  K. B. Whaley,  H. L. Woodcock III,  
 P. M. Zimmerman,  S. Faraji,  P. M. W. Gill,  M. Head-Gordon,  
 J. M. Herbert,  A. I. Krylov

 Contributors to earlier versions of Q-Chem not listed above: 
 R. D. Adamson,  B. Austin,  R. Baer,  J. Baker,  G. J. O. Beran,  
 K. Brandhorst,  S. T. Brown,  E. F. C. Byrd,  A. K. Chakraborty,  
 G. K. L. Chan,  Chun-Min Chang,  Yunqing Chen,  C.-L. Cheng,  
 Siu Hung Chien,  D. M. Chipman,  D. L. Crittenden,  H. Dachsel,  
 R. J. Doerksen,  A. D. Dutoi,  R. G. Edgar,  J. Fosso-Tande,  
 L. Fusti-Molnar,  D. Ghosh,  A. Ghysels,  A. Golubeva-Zadorozhnaya,  
 J. Gonthier,  M. S. Gordon,  S. R. Gwaltney,  G. Hawkins,  J. E. Herr,  
 A. Heyden,  S. Hirata,  E. G. Hohenstein,  G. Kedziora,  F. J. Keil,  
 C. Kelley,  Jihan Kim,  R. A. King,  R. Z. Khaliullin,  P. P. Korambath,  
 W. Kurlancheek,  A. Laurent,  A. M. Lee,  M. S. Lee,  S. V. Levchenko,  
 Ching Yeh Lin,  D. Liotard,  E. Livshits,  R. C. Lochan,  I. Lotan,  
 L. A. Martinez-Martinez,  P. E. Maslen,  N. Nair,  D. P. O'Neill,  
 D. Neuhauser,  E. Neuscamman,  C. M. Oana,  R. Olivares-Amaya,  R. Olson,  
 T. M. Perrine,  B. Peters,  P. A. Pieniazek,  A. Prociuk,  Y. M. Rhee,  
 J. Ritchie,  M. A. Rohrdanz,  E. Rosta,  N. J. Russ,  H. F. Schaefer III,  
 M. W. Schmidt,  N. E. Schultz,  S. Sharma,  N. Shenvi,  C. D. Sherrill,  
 A. C. Simmonett,  A. Sodt,  T. Stein,  D. Stuck,  K. S. Thanthiriwatte,  
 V. Vanovschi,  L. Vogt,  Tao Wang,  A. Warshel,  M. A. Watson,  
 C. F. Williams,  Q. Wu,  X. Xu,  Jun Yang,  W. Zhang,  Yan Zhao

 Please cite Q-Chem as follows:
 Y. Shao et al., Mol. Phys. 113, 184-215 (2015)
 DOI: 10.1080/00268976.2014.952696

 Q-Chem 5.4.0 for Intel X86 EM64T Linux

 Parts of Q-Chem use Armadillo 9.800.1 (Horizon Scraper).
 http://arma.sourceforge.net/

 Q-Chem begins on Sun Jul 10 10:41:30 2022  

 Host: 
0

     Scratch files written to ./qchem878238//
 May1621 |scratch|qcdevops|jenkins|workspace|build_RNUM    
 Processing $rem in /cm/shared/apps/spack/cpu/opt/spack/linux-centos8-zen2/gcc-10.2.0/qchem-5.4-akfmr7b3t57bfs6qan3padb2wnb2i7cl/config/preferences:
 Processing $rem in /home/theleonzhang/.qchemrc:
 Symmetry turned off for PCM/SM12/SMD calculation
 Core orbitals will be frozen

 Checking the input file for inconsistencies... 	...done.

--------------------------------------------------------------
User input:
--------------------------------------------------------------
$molecule
0 1
C	0.002661	-0.576309	0.019119
C	0.002661	0.287291	1.118519
C	0.002761	1.671191	0.795819
H	0.002661	-0.081509	2.155219
C	0.002761	1.891891	-0.593381
S	0.002661	0.366091	-1.467681
C	0.002761	2.758991	1.833719
H	0.002761	2.333291	2.855819
H	-0.889639	3.413291	1.745319
H	0.895161	3.413191	1.745319
C	0.002661	-2.017009	0.019119
H	-0.691439	-2.017209	-0.808281
H	-0.624939	-2.720809	0.545619
H	0.728161	-2.535909	-0.589681
H	0.002761	2.841091	-1.142481
$end

$rem
JOBTYPE		SP
EXCHANGE	HF
CORRELATION	pRIMP2
BASIS		cc-pvtz
METHOD		rimp2
AUX_BASIS	rimp2-cc-pvtz
SOLVENT_METHOD	PCM
PURECART	11111
SYMMETRY	false
MEM_TOTAL	110000
SCF_CONVERGENCE = 6
THRESH=10
$end



$solvent
dielectric 4.90
$end
--------------------------------------------------------------
 ----------------------------------------------------------------
             Standard Nuclear Orientation (Angstroms)
    I     Atom           X                Y                Z
 ----------------------------------------------------------------
    1      C       0.0026610000    -0.5763090000     0.0191190000
    2      C       0.0026610000     0.2872910000     1.1185190000
    3      C       0.0027610000     1.6711910000     0.7958190000
    4      H       0.0026610000    -0.0815090000     2.1552190000
    5      C       0.0027610000     1.8918910000    -0.5933810000
    6      S       0.0026610000     0.3660910000    -1.4676810000
    7      C       0.0027610000     2.7589910000     1.8337190000
    8      H       0.0027610000     2.3332910000     2.8558190000
    9      H      -0.8896390000     3.4132910000     1.7453190000
   10      H       0.8951610000     3.4131910000     1.7453190000
   11      C       0.0026610000    -2.0170090000     0.0191190000
   12      H      -0.6914390000    -2.0172090000    -0.8082810000
   13      H      -0.6249390000    -2.7208090000     0.5456190000
   14      H       0.7281610000    -2.5359090000    -0.5896810000
   15      H       0.0027610000     2.8410910000    -1.1424810000
 ----------------------------------------------------------------
 Nuclear Repulsion Energy =         344.62270256 hartrees
 There are       30 alpha and       30 beta electrons

 Q-Chem warning in module forms1/BasisType.C, line 2236:

 You are not using the predefined 5D/6D in this basis set.

 Requested basis set is cc-pVTZ
 There are 120 shells and 326 basis functions

 Total QAlloc Memory Limit 110000 MB
 Mega-Array Size       188 MB
 MEM_STATIC part       192 MB
 Discretize the solute cavity surface with Lebedev spheres
	Using 110 Lebedev grid points for each H atom
	Using 194 Lebedev grid points for other atoms
	Atomic van der Waals radii will be scaled by 1.20
 Remove points where switching function is < 1.0e-08
 Keep 1063 surface tesserae and discard 1175 interior tesserae
 Molecular Surface Area = 159.223 Angst**2

                       Distance Matrix (Angstroms)
             C (  1)   C (  2)   C (  3)   H (  4)   C (  5)   S (  6)
   C (  2)  1.398029
   C (  3)  2.377923  1.421026
   H (  4)  2.192658  1.100346  2.218091
   C (  5)  2.543063  2.346347  1.406622  3.383653
   S (  6)  1.760310  2.587400  2.612799  3.650445  1.758541
   C (  7)  3.796972  2.573094  1.503511  2.858636  2.577339  4.077403
   H (  8)  4.063575  2.684088  2.163788  2.514379  3.477329  4.750003
   H (  9)  4.437665  3.310733  2.175509  3.630130  2.929258  4.517189
   H ( 10)  4.437616  3.310693  2.175429  3.630083  2.929206  4.517161
   C ( 11)  1.440700  2.553131  3.769096  2.882548  3.956596  2.808868
   H ( 12)  1.800711  3.083027  4.081586  3.607082  3.976073  2.568405
   H ( 13)  2.295640  3.125822  4.443678  3.154457  4.792529  3.738477
   H ( 14)  2.176470  3.378573  4.488375  3.752986  4.486829  3.117505
   H ( 15)  3.609423  3.410867  2.263995  4.406406  1.096582  2.496273
             C (  7)   H (  8)   H (  9)   H ( 10)   C ( 11)   H ( 12)
   H (  8)  1.107208
   H (  9)  1.110090  1.787733
   H ( 10)  1.110032  1.787672  1.784800
   C ( 11)  5.109105  5.193455  5.767506  5.767443
   H ( 12)  5.502196  5.730130  6.004206  6.207046  1.079984
   H ( 13)  5.664046  5.592402  6.255920  6.432413  1.080009  1.527259
   H ( 14)  5.868138  6.008892  6.592608  6.393114  1.079928  1.527121
   H ( 15)  2.977332  4.030417  3.076228  3.076210  4.995043  4.919012
             H ( 13)   H ( 14)
   H ( 14)  1.775943
   H ( 15)  5.846231  5.453799
 
 Requested basis set is rimp2-cc-pVTZ
 There are 250 shells and 848 basis functions
 A cutoff of  1.0D-10 yielded   6163 shell pairs
 There are     45101 function pairs (     57996 Cartesian)
 Smallest overlap matrix eigenvalue = 9.24E-05

 Scale SEOQF with 1.000000e+00/1.000000e-01/1.000000e-01

 Standard Electronic Orientation quadrupole field applied
 Nucleus-field energy     =     0.0000000034 hartrees
 Guess from superposition of atomic densities
 Warning:  Energy on first SCF cycle will be non-variational
 SAD guess density has 60.000000 electrons

 -----------------------------------------------------------------------
  General SCF calculation program by
  Eric Jon Sundstrom, Paul Horn, Yuezhi Mao, Dmitri Zuev, Alec White,
  David Stuck, Shaama M.S., Shane Yost, Joonho Lee, David Small,
  Daniel Levine, Susi Lehtola, Hugh Burton, Evgeny Epifanovsky,
  Bang C. Huynh
 -----------------------------------------------------------------------
 Hartree-Fock
 A restricted SCF calculation will be
 performed using DIIS
 SCF converges when DIIS error is below 1.0e-06
 ---------------------------------------
  Cycle       Energy         DIIS error
 ---------------------------------------
    1    -632.1025507167      2.92e-02  
    2    -629.3415656438      1.95e-03  
    3    -629.4121466278      6.98e-04  
    4    -629.4198507780      3.53e-04  
    5    -629.4220612578      6.41e-05  
    6    -629.4221991975      2.65e-05  
    7    -629.4222339820      1.16e-05  
    8    -629.4222435600      5.12e-06  
    9    -629.4222450185      1.71e-06  
   10    -629.4222451989      6.18e-07  Convergence criterion met
 ---------------------------------------
 SCF time:   CPU 143.78s  wall 144.00s 

************** Final PCM Free Energy Summary **************
 G_electrostatic  =      -0.00534979 hartree =      -3.35704220 kcal/mol
 G_cavitation     =       0.00000000 hartree =       0.00000000 kcal/mol
 G_dispersion     =       0.00000000 hartree =       0.00000000 kcal/mol
 G_repulsion      =       0.00000000 hartree =       0.00000000 kcal/mol
 --------------------------------------------------
 Non-electrostatic Free Energy =       0.00000000 hartree =       0.00000000 kcal/mol
 Total                         =      -0.00534979 hartree =      -3.35704220 kcal/mol
 --------------------------------------------------
 SCF Energy (H0 + V/2)                       =    -629.42224520 
 Solute Internal Energy (H0)                 =    -629.41689541 
 Total Free Energy (H0 + V/2 + non-elec)     =    -629.42224520 hartree
                                             = -394968.42012038 kcal/mol
***********************************************************

 SCF   energy in the final basis set =     -629.4222451989
 Total energy in the final basis set =     -629.4222451989


 --------------------------------------------------------------
  Generalized many-body perturbation theory program
  by Joonho Lee, Fazle Rob, Xintian Feng, Evgeny Epifanovsky

 No regularization used 
 (reg. param. = 0.0000e+00)
  (P|Q)^-1/2 Time:  CPU 0.48 s  wall 0.48 s

 In RI-MP2 calculation: 
 # of frozen core orbitals: 11

 Components of the RIMP2 correlation energy:
        aaaa    correlation energy =        -0.1452527172 a.u.
        abab    correlation energy =        -0.8858437984 a.u.
        bbbb    correlation energy =        -0.1452527172 a.u.
        non-Brillouin singles      =        -0.0000000000 a.u.
        total same-spin energy     =        -0.2905054343 a.u.
        total opposite-spin energy =        -0.8858437984 a.u.

 Total  RIMP2   correlation energy =        -1.1763492327 a.u.
        RIMP2         total energy =      -630.5985944316 a.u.

 RI-MP2 Energy Time:  CPU 11.00 s  wall 11.03 s
 
 --------------------------------------------------------------
 
                    Orbital Energies (a.u.)
 --------------------------------------------------------------
 
 Alpha MOs
 -- Occupied --
-91.9794 -11.2794 -11.2545 -11.2468 -11.2266 -11.2266 -11.2182  -8.9793
 -6.6602  -6.6597  -6.6591  -1.1606  -1.0556  -0.9956  -0.9455  -0.8818
 -0.7465  -0.7182  -0.6488  -0.5902  -0.5754  -0.5654  -0.5535  -0.5473
 -0.5083  -0.4890  -0.4651  -0.4506  -0.3392  -0.2967
 -- Virtual --
  0.1072   0.1428   0.1495   0.1750   0.1888   0.1927   0.2033   0.2265
  0.2355   0.2409   0.2500   0.2589   0.2901   0.3257   0.3428   0.3490
  0.3832   0.3941   0.4034   0.4196   0.4377   0.4659   0.4696   0.4867
  0.4959   0.4978   0.5211   0.5270   0.5423   0.5593   0.5874   0.5908
  0.6009   0.6078   0.6105   0.6132   0.6291   0.6396   0.6442   0.6498
  0.6567   0.6697   0.6884   0.7143   0.7341   0.7398   0.7734   0.7876
  0.8032   0.8290   0.8410   0.8529   0.8716   0.8969   0.9179   0.9390
  0.9425   0.9700   0.9775   1.0127   1.0340   1.0437   1.0641   1.0660
  1.0824   1.0831   1.1034   1.1495   1.1627   1.1845   1.1978   1.2121
  1.2249   1.2361   1.2568   1.2629   1.2727   1.2893   1.3058   1.3222
  1.3673   1.3897   1.3951   1.4114   1.4242   1.4355   1.4514   1.4811
  1.5003   1.5181   1.5314   1.5378   1.5520   1.5628   1.5757   1.5846
  1.6087   1.6277   1.6519   1.6814   1.6901   1.6956   1.7131   1.7422
  1.7515   1.7903   1.8195   1.8317   1.8896   1.9036   1.9224   1.9614
  2.0162   2.0412   2.0911   2.1364   2.1856   2.1984   2.2206   2.2542
  2.2614   2.2980   2.3620   2.4184   2.4593   2.4989   2.5040   2.5449
  2.5662   2.6071   2.6280   2.6580   2.6834   2.7035   2.7156   2.7303
  2.7418   2.7570   2.7691   2.7896   2.8031   2.8498   2.8508   2.8969
  2.9098   2.9324   2.9612   2.9777   2.9921   3.0308   3.0441   3.0588
  3.0716   3.0898   3.1142   3.1350   3.1552   3.1655   3.1727   3.1972
  3.2342   3.2429   3.2570   3.2746   3.2866   3.3018   3.3115   3.3234
  3.3481   3.3708   3.3719   3.3803   3.3984   3.4263   3.4284   3.4363
  3.4544   3.4760   3.4960   3.5019   3.5104   3.5190   3.5371   3.5708
  3.5826   3.5963   3.6110   3.6204   3.6269   3.6345   3.6585   3.6720
  3.6922   3.7091   3.7150   3.7352   3.7656   3.7869   3.7923   3.7994
  3.8086   3.8310   3.8530   3.8855   3.9132   3.9228   3.9385   3.9626
  3.9768   3.9819   4.0121   4.0259   4.0310   4.0558   4.0811   4.1048
  4.1199   4.1475   4.1591   4.1846   4.1950   4.2250   4.2430   4.2463
  4.2794   4.2929   4.3099   4.3333   4.3402   4.3527   4.3949   4.4026
  4.4175   4.4261   4.4457   4.4635   4.4703   4.4827   4.5452   4.5656
  4.5998   4.6161   4.6328   4.6600   4.7132   4.7380   4.7683   4.7836
  4.8003   4.8329   4.8504   4.8928   4.9253   4.9642   5.0665   5.1044
  5.1055   5.1666   5.1834   5.1993   5.2478   5.2611   5.2879   5.3254
  5.3688   5.4067   5.4209   5.4424   5.4828   5.5043   5.5589   5.5680
  5.5900   5.6177   5.6232   5.6939   5.7123   5.8279   5.8399   5.8671
  5.9162   6.0377   6.0422   6.1329   6.2273   6.2558   6.3144   6.3561
  6.4683   6.5395   9.2033  11.4351  12.9577  13.8852  14.1874  14.5048
 --------------------------------------------------------------
 
          Ground-State Mulliken Net Atomic Charges

     Atom                 Charge (a.u.)
  ----------------------------------------
      1 C                     0.055417
      2 C                    -0.279620
      3 C                     0.041244
      4 H                     0.180721
      5 C                    -0.262047
      6 S                    -0.003951
      7 C                    -0.273558
      8 H                     0.101597
      9 H                     0.107012
     10 H                     0.107222
     11 C                    -0.375382
     12 H                     0.121199
     13 H                     0.156552
     14 H                     0.129063
     15 H                     0.194531
  ----------------------------------------
  Sum of atomic charges =     0.000000

 -----------------------------------------------------------------
                    Cartesian Multipole Moments
 -----------------------------------------------------------------
    Charge (ESU x 10^10)
                -0.0000
    Dipole Moment (Debye)
         X      -0.4274      Y      -0.2661      Z       0.9352
       Tot       1.0621
    Quadrupole Moments (Debye-Ang)
        XX     -53.9914     XY       1.0573     YY     -41.9367
        XZ      -0.3145     YZ       1.2194     ZZ     -48.7580
    Octopole Moments (Debye-Ang^2)
       XXX       0.4319    XXY     -32.2592    XYY      -2.5194
       YYY     -80.2501    XXZ      -1.7338    XYZ       1.2372
       YYZ      -6.2575    XZZ       0.1952    YZZ     -24.3815
       ZZZ       1.9176
    Hexadecapole Moments (Debye-Ang^3)
      XXXX     -78.8198   XXXY      -1.9502   XXYY    -159.5765
      XYYY       5.1475   YYYY    -811.5224   XXXZ       0.0924
      XXYZ     -31.1350   XYYZ      -3.7364   YYYZ    -104.7659
      XXZZ    -101.3576   XYZZ      -0.8046   YYZZ    -215.0524
      XZZZ       0.5597   YZZZ    -104.3387   ZZZZ    -483.3154
 -----------------------------------------------------------------
 Total job time:  156.69s(wall), 155.13s(cpu) 
 Sun Jul 10 10:44:07 2022

        *************************************************************
        *                                                           *
        *  Thank you very much for using Q-Chem.  Have a nice day.  *
        *                                                           *
        *************************************************************


remove work dirs ./qchem878238.0 -- ./qchem878238.-1
rm -rf ./qchem878238
