You are running Q-Chem version: 5.4.0

#
# job setting
#
local host:  exp-14-41
current dir: /expanse/lustre/scratch/theleonzhang/temp_project/Hydrogenated_Impropers_Test
input file:  Methylthiophene_Phi_25_Theta_230_Methylthiophene_Hydrogenated_Improper_Alternate.qcin
output file: 
nprocs     : 0
nthreads   : 1
#
# qchem installation setting
#
QC:          /cm/shared/apps/spack/cpu/opt/spack/linux-centos8-zen2/gcc-10.2.0/qchem-5.4-akfmr7b3t57bfs6qan3padb2wnb2i7cl
QCAUX:       /cm/shared/apps/spack/cpu/opt/spack/linux-centos8-zen2/gcc-10.2.0/qchem-5.4-akfmr7b3t57bfs6qan3padb2wnb2i7cl/qcaux
QCPROG:      /cm/shared/apps/spack/cpu/opt/spack/linux-centos8-zen2/gcc-10.2.0/qchem-5.4-akfmr7b3t57bfs6qan3padb2wnb2i7cl/exe/qcprog.exe_s
QCPROG_S:    /cm/shared/apps/spack/cpu/opt/spack/linux-centos8-zen2/gcc-10.2.0/qchem-5.4-akfmr7b3t57bfs6qan3padb2wnb2i7cl/exe/qcprog.exe_s
PARALLEL:    -DSERIAL
QCMPI:       mpich
#
# qchem directory setting
#
qcrun:       qchem1541800
QCSCRATCH:   .
QCLOCALSCR:  
QCTMPDIR:    .
QCFILEPREF:  ./qchem1541800
QCSAVEDIR:   
workdirs:    ./qchem1541800
workdir0:    ./qchem1541800
partmpdirs =  
#
# parallel setting
#
QCRSH:           ssh
QCMPI:           mpich
QCMPIRUN:        /cm/shared/apps/spack/cpu/opt/spack/linux-centos8-zen2/gcc-10.2.0/qchem-5.4-akfmr7b3t57bfs6qan3padb2wnb2i7cl/bin/mpi/mpirun_qchem
QCMACHINEFILE:   ./qchem1541800/hostfile

#
# env setting
#
exported envs:   QC QCAUX QCSCRATCH QCRUNNAME QCFILEPREF QCPROG QCPROG_S GUIFILE

Running Job 1 of 1 Methylthiophene_Phi_25_Theta_230_Methylthiophene_Hydrogenated_Improper_Alternate.qcin
qchem Methylthiophene_Phi_25_Theta_230_Methylthiophene_Hydrogenated_Improper_Alternate.qcin_1541800.0 ./qchem1541800/ 0
/cm/shared/apps/spack/cpu/opt/spack/linux-centos8-zen2/gcc-10.2.0/qchem-5.4-akfmr7b3t57bfs6qan3padb2wnb2i7cl/exe/qcprog.exe_s Methylthiophene_Phi_25_Theta_230_Methylthiophene_Hydrogenated_Improper_Alternate.qcin_1541800.0 ./qchem1541800/
                  Welcome to Q-Chem
     A Quantum Leap Into The Future Of Chemistry


 Q-Chem 5.4, Q-Chem, Inc., Pleasanton, CA (2021)

 License issued to: University of California, San Diego (site)

 E. Epifanovsky,  A. T. B. Gilbert,  Xintian Feng,  Joonho Lee,  Yuezhi Mao,  
 N. Mardirossian,  P. Pokhilko,  A. White,  M. Wormit,  M. P. Coons,  
 A. L. Dempwolff,  Zhengting Gan,  D. Hait,  P. R. Horn,  L. D. Jacobson,  
 I. Kaliman,  J. Kussmann,  A. W. Lange,  Ka Un Lao,  D. S. Levine,  Jie Liu,  
 S. C. McKenzie,  A. F. Morrison,  K. Nanda,  F. Plasser,  D. R. Rehn,  
 M. L. Vidal,  Zhi-Qiang You,  Ying Zhu,  B. Alam,  B. Albrecht,  
 A. Aldossary,  E. Alguire,  J. H. Andersen,  D. Barton,  K. Begam,  A. Behn,  
 Y. A. Bernard,  E. J. Berquist,  H. Burton,  A. Carreras,  K. Carter-Fenk,  
 R. Chakraborty,  A. D. Chien,  K. D. Closser,  V. Cofer-Shabica,  
 S. Dasgupta,  Jia Deng,  M. de Wergifosse,  M. Diedenhofen,  Hainam Do,  
 S. Ehlert,  Po-Tung Fang,  S. Fatehi,  Qingguo Feng,  J. Gayvert,  
 Qinghui Ge,  G. Gidofalvi,  M. Goldey,  J. Gomes,  C. Gonzalez-Espinoza,  
 S. Gulania,  A. Gunina,  M. W. D. Hanson-Heine,  P. H. P. Harbach,  
 A. W. Hauser,  M. F. Herbst,  M. Hernandez Vera,  M. Hodecker,  
 Z. C. Holden,  S. Houck,  Xunkun Huang,  Kerwin Hui,  B. C. Huynh,  
 M. Ivanov,  Hyunjun Ji,  Hanjie Jiang,  B. Kaduk,  S. Kaehler,  
 K. Khistyaev,  Jaehoon Kim,  P. Klunzinger,  Z. Koczor-Benda,  
 Joong Hoon Koh,  D. Kosenkov,  L. Koulias,  T. Kowalczyk,  C. M. Krauter,  
 K. Kue,  A. Kunitsa,  T. Kus,  A. Landau,  K. V. Lawler,  D. Lefrancois,  
 S. Lehtola,  Rain Li,  Yi-Pei Li,  Jiashu Liang,  M. Liebenthal,  
 Hung-Hsuan Lin,  You-Sheng Lin,  Fenglai Liu,  Kuan-Yu Liu,  
 M. Loipersberger,  A. Luenser,  A. Manjanath,  P. Manohar,  E. Mansoor,  
 S. F. Manzer,  Shan-Ping Mao,  A. V. Marenich,  T. Markovich,  S. Mason,  
 S. A. Maurer,  P. F. McLaughlin,  M. F. S. J. Menger,  J.-M. Mewes,  
 S. A. Mewes,  P. Morgante,  J. W. Mullinax,  T. S. Nguyen-Beck,  
 K. J. Oosterbaan,  G. Paran,  Alexander C. Paul,  Suranjan K. Paul,  
 F. Pavosevic,  Zheng Pei,  S. Prager,  E. I. Proynov,  E. Ramos,  B. Rana,  
 A. E. Rask,  A. Rettig,  R. M. Richard,  F. Rob,  E. Rossomme,  T. Scheele,  
 M. Scheurer,  M. Schneider,  N. Sergueev,  S. M. Sharada,  W. Skomorowski,  
 D. W. Small,  C. J. Stein,  Yu-Chuan Su,  E. J. Sundstrom,  Zhen Tao,  
 J. Thirman,  T. Tsuchimochi,  N. M. Tubman,  S. P. Veccham,  O. Vydrov,  
 J. Wenzel,  J. Witte,  A. Yamada,  Kun Yao,  S. Yeganeh,  S. R. Yost,  
 A. Zech,  Igor Ying Zhang,  Xing Zhang,  Yu Zhang,  D. Zuev,  
 A. Aspuru-Guzik,  A. T. Bell,  N. A. Besley,  K. B. Bravaya,  B. R. Brooks,  
 D. Casanova,  Jeng-Da Chai,  S. Coriani,  C. J. Cramer,  
 A. E. DePrince, III,  R. A. DiStasio Jr.,  A. Dreuw,  B. D. Dunietz,  
 T. R. Furlani,  W. A. Goddard III,  S. Grimme,  S. Hammes-Schiffer,  
 T. Head-Gordon,  W. J. Hehre,  Chao-Ping Hsu,  T.-C. Jagau,  Yousung Jung,  
 A. Klamt,  Jing Kong,  D. S. Lambrecht,  WanZhen Liang,  N. J. Mayhall,  
 C. W. McCurdy,  J. B. Neaton,  C. Ochsenfeld,  J. A. Parkhill,  R. Peverati,  
 V. A. Rassolov,  Yihan Shao,  L. V. Slipchenko,  T. Stauch,  R. P. Steele,  
 J. E. Subotnik,  A. J. W. Thom,  A. Tkatchenko,  D. G. Truhlar,  
 T. Van Voorhis,  T. A. Wesolowski,  K. B. Whaley,  H. L. Woodcock III,  
 P. M. Zimmerman,  S. Faraji,  P. M. W. Gill,  M. Head-Gordon,  
 J. M. Herbert,  A. I. Krylov

 Contributors to earlier versions of Q-Chem not listed above: 
 R. D. Adamson,  B. Austin,  R. Baer,  J. Baker,  G. J. O. Beran,  
 K. Brandhorst,  S. T. Brown,  E. F. C. Byrd,  A. K. Chakraborty,  
 G. K. L. Chan,  Chun-Min Chang,  Yunqing Chen,  C.-L. Cheng,  
 Siu Hung Chien,  D. M. Chipman,  D. L. Crittenden,  H. Dachsel,  
 R. J. Doerksen,  A. D. Dutoi,  R. G. Edgar,  J. Fosso-Tande,  
 L. Fusti-Molnar,  D. Ghosh,  A. Ghysels,  A. Golubeva-Zadorozhnaya,  
 J. Gonthier,  M. S. Gordon,  S. R. Gwaltney,  G. Hawkins,  J. E. Herr,  
 A. Heyden,  S. Hirata,  E. G. Hohenstein,  G. Kedziora,  F. J. Keil,  
 C. Kelley,  Jihan Kim,  R. A. King,  R. Z. Khaliullin,  P. P. Korambath,  
 W. Kurlancheek,  A. Laurent,  A. M. Lee,  M. S. Lee,  S. V. Levchenko,  
 Ching Yeh Lin,  D. Liotard,  E. Livshits,  R. C. Lochan,  I. Lotan,  
 L. A. Martinez-Martinez,  P. E. Maslen,  N. Nair,  D. P. O'Neill,  
 D. Neuhauser,  E. Neuscamman,  C. M. Oana,  R. Olivares-Amaya,  R. Olson,  
 T. M. Perrine,  B. Peters,  P. A. Pieniazek,  A. Prociuk,  Y. M. Rhee,  
 J. Ritchie,  M. A. Rohrdanz,  E. Rosta,  N. J. Russ,  H. F. Schaefer III,  
 M. W. Schmidt,  N. E. Schultz,  S. Sharma,  N. Shenvi,  C. D. Sherrill,  
 A. C. Simmonett,  A. Sodt,  T. Stein,  D. Stuck,  K. S. Thanthiriwatte,  
 V. Vanovschi,  L. Vogt,  Tao Wang,  A. Warshel,  M. A. Watson,  
 C. F. Williams,  Q. Wu,  X. Xu,  Jun Yang,  W. Zhang,  Yan Zhao

 Please cite Q-Chem as follows:
 Y. Shao et al., Mol. Phys. 113, 184-215 (2015)
 DOI: 10.1080/00268976.2014.952696

 Q-Chem 5.4.0 for Intel X86 EM64T Linux

 Parts of Q-Chem use Armadillo 9.800.1 (Horizon Scraper).
 http://arma.sourceforge.net/

 Q-Chem begins on Sun Jul 10 11:02:47 2022  

 Host: 
0

     Scratch files written to ./qchem1541800//
 May1621 |scratch|qcdevops|jenkins|workspace|build_RNUM    
 Processing $rem in /cm/shared/apps/spack/cpu/opt/spack/linux-centos8-zen2/gcc-10.2.0/qchem-5.4-akfmr7b3t57bfs6qan3padb2wnb2i7cl/config/preferences:
 Processing $rem in /home/theleonzhang/.qchemrc:
 Symmetry turned off for PCM/SM12/SMD calculation
 Core orbitals will be frozen

 Checking the input file for inconsistencies... 	...done.

--------------------------------------------------------------
User input:
--------------------------------------------------------------
$molecule
0 1
C	-0.290253	-0.512746	0.011685
C	0.074747	0.269954	1.111085
C	0.659647	1.524154	0.788385
H	-0.081153	-0.064346	2.147785
C	0.752947	1.724154	-0.600815
S	0.108047	0.341354	-1.475115
C	1.119347	2.509954	1.826285
H	0.939447	2.124254	2.848385
H	0.587047	3.480154	1.737885
H	2.204647	2.725854	1.737885
C	-0.290253	-1.953446	0.011685
H	0.403847	-1.953146	0.839085
H	-0.917853	-2.657246	0.538185
H	0.435247	-2.472346	-0.597115
H	1.154047	2.584454	-1.149915
$end

$rem
JOBTYPE		SP
EXCHANGE	HF
CORRELATION	pRIMP2
BASIS		cc-pvtz
METHOD		rimp2
AUX_BASIS	rimp2-cc-pvtz
SOLVENT_METHOD	PCM
PURECART	11111
SYMMETRY	false
MEM_TOTAL	110000
SCF_CONVERGENCE = 6
THRESH=10
$end



$solvent
dielectric 4.90
$end
--------------------------------------------------------------
 ----------------------------------------------------------------
             Standard Nuclear Orientation (Angstroms)
    I     Atom           X                Y                Z
 ----------------------------------------------------------------
    1      C      -0.2902530000    -0.5127460000     0.0116850000
    2      C       0.0747470000     0.2699540000     1.1110850000
    3      C       0.6596470000     1.5241540000     0.7883850000
    4      H      -0.0811530000    -0.0643460000     2.1477850000
    5      C       0.7529470000     1.7241540000    -0.6008150000
    6      S       0.1080470000     0.3413540000    -1.4751150000
    7      C       1.1193470000     2.5099540000     1.8262850000
    8      H       0.9394470000     2.1242540000     2.8483850000
    9      H       0.5870470000     3.4801540000     1.7378850000
   10      H       2.2046470000     2.7258540000     1.7378850000
   11      C      -0.2902530000    -1.9534460000     0.0116850000
   12      H       0.4038470000    -1.9531460000     0.8390850000
   13      H      -0.9178530000    -2.6572460000     0.5381850000
   14      H       0.4352470000    -2.4723460000    -0.5971150000
   15      H       1.1540470000     2.5844540000    -1.1499150000
 ----------------------------------------------------------------
 Nuclear Repulsion Energy =         345.70815356 hartrees
 There are       30 alpha and       30 beta electrons

 Q-Chem warning in module forms1/BasisType.C, line 2236:

 You are not using the predefined 5D/6D in this basis set.

 Requested basis set is cc-pVTZ
 There are 120 shells and 326 basis functions

 Total QAlloc Memory Limit 110000 MB
 Mega-Array Size       188 MB
 MEM_STATIC part       192 MB
 Discretize the solute cavity surface with Lebedev spheres
	Using 110 Lebedev grid points for each H atom
	Using 194 Lebedev grid points for other atoms
	Atomic van der Waals radii will be scaled by 1.20
 Remove points where switching function is < 1.0e-08
 Keep 1065 surface tesserae and discard 1173 interior tesserae
 Molecular Surface Area = 158.162 Angst**2

                       Distance Matrix (Angstroms)
             C (  1)   C (  2)   C (  3)   H (  4)   C (  5)   S (  6)
   C (  2)  1.398043
   C (  3)  2.377927  1.421007
   H (  4)  2.192649  1.100367  2.218127
   C (  5)  2.543058  2.346328  1.406621  3.383675
   S (  6)  1.760314  2.587400  2.612797  3.650451  1.758531
   C (  7)  3.796901  2.572994  1.503450  2.858598  2.577314  4.077352
   H (  8)  4.063594  2.684091  2.163795  2.514445  3.477333  4.750012
   H (  9)  4.437643  3.310697  2.175490  3.630150  2.929262  4.517176
   H ( 10)  4.437660  3.310709  2.175467  3.630167  2.929224  4.517183
   C ( 11)  1.440700  2.507073  3.687719  2.859256  3.871455  2.763209
   H ( 12)  1.800310  2.263728  3.487065  2.348507  3.964558  3.272270
   H ( 13)  2.295640  3.143560  4.476071  3.164492  4.825511  3.754657
   H ( 14)  2.176470  3.250864  4.235797  3.687765  4.208510  2.965611
   H ( 15)  3.609427  3.410853  2.263995  4.406437  1.096589  2.496271
             C (  7)   H (  8)   H (  9)   H ( 10)   C ( 11)   H ( 12)
   H (  8)  1.107166
   H (  9)  1.110156  1.787697
   H ( 10)  1.110092  1.787698  1.784824
   C ( 11)  5.020128  5.117291  5.768313  5.576750
   H ( 12)  4.626637  4.577045  5.510186  5.093502  1.079984
   H ( 13)  5.701696  5.625774  6.432082  6.337748  1.080009  1.527478
   H ( 14)  5.582488  5.766664  6.395899  5.966933  1.079928  1.527490
   H ( 15)  2.977335  4.030414  3.076224  3.076222  4.901821  5.010862
             H ( 13)   H ( 14)
   H ( 14)  1.775943
   H ( 15)  5.883695  5.137459
 
 Requested basis set is rimp2-cc-pVTZ
 There are 250 shells and 848 basis functions
 A cutoff of  1.0D-10 yielded   6229 shell pairs
 There are     45637 function pairs (     58679 Cartesian)
 Smallest overlap matrix eigenvalue = 1.15E-04

 Scale SEOQF with 1.000000e-01/1.000000e-01/1.000000e-01

 Standard Electronic Orientation quadrupole field applied
 Nucleus-field energy     =     0.0000000015 hartrees
 Guess from superposition of atomic densities
 Warning:  Energy on first SCF cycle will be non-variational
 SAD guess density has 60.000000 electrons

 -----------------------------------------------------------------------
  General SCF calculation program by
  Eric Jon Sundstrom, Paul Horn, Yuezhi Mao, Dmitri Zuev, Alec White,
  David Stuck, Shaama M.S., Shane Yost, Joonho Lee, David Small,
  Daniel Levine, Susi Lehtola, Hugh Burton, Evgeny Epifanovsky,
  Bang C. Huynh
 -----------------------------------------------------------------------
 Hartree-Fock
 A restricted SCF calculation will be
 performed using DIIS
 SCF converges when DIIS error is below 1.0e-06
 ---------------------------------------
  Cycle       Energy         DIIS error
 ---------------------------------------
    1    -632.1248945852      2.92e-02  
    2    -629.3299024391      1.93e-03  
    3    -629.3999822115      6.59e-04  
    4    -629.4072069819      3.35e-04  
    5    -629.4091757847      6.36e-05  
    6    -629.4093063814      2.56e-05  
    7    -629.4093389579      1.16e-05  
    8    -629.4093483819      5.20e-06  
    9    -629.4093500477      1.80e-06  
   10    -629.4093502496      5.27e-07  Convergence criterion met
 ---------------------------------------
 SCF time:   CPU 145.68s  wall 147.00s 

************** Final PCM Free Energy Summary **************
 G_electrostatic  =      -0.00535818 hartree =      -3.36230976 kcal/mol
 G_cavitation     =       0.00000000 hartree =       0.00000000 kcal/mol
 G_dispersion     =       0.00000000 hartree =       0.00000000 kcal/mol
 G_repulsion      =       0.00000000 hartree =       0.00000000 kcal/mol
 --------------------------------------------------
 Non-electrostatic Free Energy =       0.00000000 hartree =       0.00000000 kcal/mol
 Total                         =      -0.00535818 hartree =      -3.36230976 kcal/mol
 --------------------------------------------------
 SCF Energy (H0 + V/2)                       =    -629.40935025 
 Solute Internal Energy (H0)                 =    -629.40399207 
 Total Free Energy (H0 + V/2 + non-elec)     =    -629.40935025 hartree
                                             = -394960.32841761 kcal/mol
***********************************************************

 SCF   energy in the final basis set =     -629.4093502496
 Total energy in the final basis set =     -629.4093502496


 --------------------------------------------------------------
  Generalized many-body perturbation theory program
  by Joonho Lee, Fazle Rob, Xintian Feng, Evgeny Epifanovsky

 No regularization used 
 (reg. param. = 0.0000e+00)
  (P|Q)^-1/2 Time:  CPU 0.48 s  wall 0.49 s

 In RI-MP2 calculation: 
 # of frozen core orbitals: 11

 Components of the RIMP2 correlation energy:
        aaaa    correlation energy =        -0.1460476221 a.u.
        abab    correlation energy =        -0.8881847684 a.u.
        bbbb    correlation energy =        -0.1460476221 a.u.
        non-Brillouin singles      =        -0.0000000000 a.u.
        total same-spin energy     =        -0.2920952441 a.u.
        total opposite-spin energy =        -0.8881847684 a.u.

 Total  RIMP2   correlation energy =        -1.1802800125 a.u.
        RIMP2         total energy =      -630.5896302622 a.u.

 RI-MP2 Energy Time:  CPU 11.10 s  wall 11.14 s
 
 --------------------------------------------------------------
 
                    Orbital Energies (a.u.)
 --------------------------------------------------------------
 
 Alpha MOs
 -- Occupied --
-91.9779 -11.2775 -11.2556 -11.2474 -11.2298 -11.2272 -11.2155  -8.9777
 -6.6586  -6.6581  -6.6576  -1.1629  -1.0548  -0.9987  -0.9385  -0.8831
 -0.7429  -0.7233  -0.6476  -0.5902  -0.5752  -0.5679  -0.5578  -0.5431
 -0.5100  -0.4815  -0.4677  -0.4485  -0.3358  -0.2952
 -- Virtual --
  0.0966   0.1448   0.1548   0.1763   0.1841   0.1892   0.2055   0.2226
  0.2345   0.2452   0.2501   0.2653   0.2949   0.3185   0.3422   0.3592
  0.3789   0.3898   0.4041   0.4171   0.4366   0.4533   0.4707   0.4791
  0.4950   0.5082   0.5142   0.5326   0.5419   0.5507   0.5666   0.5876
  0.5987   0.6122   0.6134   0.6263   0.6357   0.6395   0.6436   0.6515
  0.6524   0.6597   0.6798   0.7051   0.7319   0.7404   0.7539   0.7724
  0.8007   0.8234   0.8376   0.8545   0.8673   0.8805   0.8944   0.9247
  0.9414   0.9607   1.0114   1.0195   1.0271   1.0535   1.0639   1.0725
  1.0811   1.1092   1.1300   1.1606   1.1728   1.1852   1.2027   1.2085
  1.2198   1.2286   1.2551   1.2606   1.2660   1.2828   1.3212   1.3290
  1.3505   1.3811   1.3948   1.4087   1.4222   1.4332   1.4438   1.4780
  1.4930   1.5010   1.5171   1.5290   1.5552   1.5630   1.5695   1.5873
  1.6056   1.6234   1.6620   1.6662   1.6847   1.7047   1.7112   1.7356
  1.7656   1.7769   1.8185   1.8266   1.8739   1.9023   1.9433   1.9669
  1.9918   2.0313   2.1114   2.1150   2.1776   2.1868   2.2222   2.2573
  2.2583   2.2756   2.3310   2.4071   2.4504   2.4810   2.5392   2.5632
  2.5680   2.6032   2.6282   2.6687   2.6719   2.6847   2.7022   2.7354
  2.7587   2.7621   2.7890   2.7913   2.8045   2.8403   2.8484   2.8877
  2.8939   2.9388   2.9584   2.9680   2.9926   3.0196   3.0425   3.0570
  3.0929   3.1107   3.1215   3.1379   3.1582   3.1685   3.1822   3.1914
  3.2159   3.2435   3.2618   3.2761   3.2803   3.2968   3.3052   3.3313
  3.3358   3.3757   3.3799   3.3879   3.4107   3.4142   3.4303   3.4408
  3.4447   3.4769   3.4905   3.4985   3.5199   3.5307   3.5360   3.5676
  3.5790   3.5930   3.5977   3.6272   3.6340   3.6462   3.6595   3.6882
  3.6904   3.6986   3.7187   3.7374   3.7726   3.7788   3.7892   3.7918
  3.8168   3.8390   3.8620   3.8712   3.8977   3.9212   3.9487   3.9708
  3.9813   3.9907   4.0071   4.0165   4.0725   4.0826   4.1051   4.1110
  4.1372   4.1509   4.1620   4.1870   4.2172   4.2233   4.2417   4.2569
  4.2787   4.2826   4.3183   4.3334   4.3561   4.3711   4.3905   4.4001
  4.4029   4.4342   4.4374   4.4631   4.4905   4.5031   4.5582   4.5900
  4.6063   4.6283   4.6586   4.6685   4.7270   4.7321   4.7728   4.8015
  4.8186   4.8259   4.8529   4.8853   4.9254   4.9512   5.0807   5.1004
  5.1118   5.1272   5.1862   5.1902   5.2329   5.2570   5.2813   5.3172
  5.3692   5.4011   5.4062   5.4344   5.4490   5.5062   5.5496   5.5597
  5.6029   5.6249   5.6314   5.6856   5.7202   5.8218   5.8311   5.8733
  5.8921   6.0038   6.0587   6.1165   6.2282   6.2382   6.2809   6.3712
  6.4051   6.4572   9.1535  11.4947  12.8824  13.8412  14.1883  14.2822
 --------------------------------------------------------------
 
          Ground-State Mulliken Net Atomic Charges

     Atom                 Charge (a.u.)
  ----------------------------------------
      1 C                     0.035309
      2 C                    -0.261329
      3 C                     0.032979
      4 H                     0.175441
      5 C                    -0.258451
      6 S                     0.001269
      7 C                    -0.271611
      8 H                     0.101318
      9 H                     0.107308
     10 H                     0.106380
     11 C                    -0.387412
     12 H                     0.141370
     13 H                     0.146746
     14 H                     0.138058
     15 H                     0.192625
  ----------------------------------------
  Sum of atomic charges =     0.000000

 -----------------------------------------------------------------
                    Cartesian Multipole Moments
 -----------------------------------------------------------------
    Charge (ESU x 10^10)
                -0.0000
    Dipole Moment (Debye)
         X       1.0607      Y      -0.2825      Z       1.9725
       Tot       2.2573
    Quadrupole Moments (Debye-Ang)
        XX     -52.8262     XY       2.4648     YY     -44.0750
        XZ      -0.3043     YZ      -0.9011     ZZ     -48.5531
    Octopole Moments (Debye-Ang^2)
       XXX     -45.6182    XXY     -24.6850    XYY      -6.8006
       YYY     -73.2350    XXZ      -2.4164    XYZ       0.2539
       YYZ      -1.7142    XZZ     -13.1152    YZZ     -21.9813
       ZZZ       0.7361
    Hexadecapole Moments (Debye-Ang^3)
      XXXX    -179.7701   XXXY    -120.6035   XXYY    -150.8583
      XYYY    -108.1543   YYYY    -720.4163   XXXZ     -38.5498
      XXYZ     -29.3424   XYYZ     -21.4045   YYYZ     -96.3753
      XXZZ    -114.5675   XYZZ     -33.3733   YYZZ    -199.1357
      XZZZ     -42.1637   YZZZ     -89.2014   ZZZZ    -482.7478
 -----------------------------------------------------------------
 Total job time:  158.44s(wall), 157.13s(cpu) 
 Sun Jul 10 11:05:25 2022

        *************************************************************
        *                                                           *
        *  Thank you very much for using Q-Chem.  Have a nice day.  *
        *                                                           *
        *************************************************************


remove work dirs ./qchem1541800.0 -- ./qchem1541800.-1
rm -rf ./qchem1541800
