You are running Q-Chem version: 5.4.0

#
# job setting
#
local host:  exp-4-11
current dir: /expanse/lustre/scratch/theleonzhang/temp_project/Hydrogenated_Impropers_Test
input file:  Methylthiophene_Phi_15_Theta_300_Methylthiophene_Hydrogenated_Improper.qcin
output file: 
nprocs     : 0
nthreads   : 1
#
# qchem installation setting
#
QC:          /cm/shared/apps/spack/cpu/opt/spack/linux-centos8-zen2/gcc-10.2.0/qchem-5.4-akfmr7b3t57bfs6qan3padb2wnb2i7cl
QCAUX:       /cm/shared/apps/spack/cpu/opt/spack/linux-centos8-zen2/gcc-10.2.0/qchem-5.4-akfmr7b3t57bfs6qan3padb2wnb2i7cl/qcaux
QCPROG:      /cm/shared/apps/spack/cpu/opt/spack/linux-centos8-zen2/gcc-10.2.0/qchem-5.4-akfmr7b3t57bfs6qan3padb2wnb2i7cl/exe/qcprog.exe_s
QCPROG_S:    /cm/shared/apps/spack/cpu/opt/spack/linux-centos8-zen2/gcc-10.2.0/qchem-5.4-akfmr7b3t57bfs6qan3padb2wnb2i7cl/exe/qcprog.exe_s
PARALLEL:    -DSERIAL
QCMPI:       mpich
#
# qchem directory setting
#
qcrun:       qchem3444413
QCSCRATCH:   .
QCLOCALSCR:  
QCTMPDIR:    .
QCFILEPREF:  ./qchem3444413
QCSAVEDIR:   
workdirs:    ./qchem3444413
workdir0:    ./qchem3444413
partmpdirs =  
#
# parallel setting
#
QCRSH:           ssh
QCMPI:           mpich
QCMPIRUN:        /cm/shared/apps/spack/cpu/opt/spack/linux-centos8-zen2/gcc-10.2.0/qchem-5.4-akfmr7b3t57bfs6qan3padb2wnb2i7cl/bin/mpi/mpirun_qchem
QCMACHINEFILE:   ./qchem3444413/hostfile

#
# env setting
#
exported envs:   QC QCAUX QCSCRATCH QCRUNNAME QCFILEPREF QCPROG QCPROG_S GUIFILE

Running Job 1 of 1 Methylthiophene_Phi_15_Theta_300_Methylthiophene_Hydrogenated_Improper.qcin
qchem Methylthiophene_Phi_15_Theta_300_Methylthiophene_Hydrogenated_Improper.qcin_3444413.0 ./qchem3444413/ 0
/cm/shared/apps/spack/cpu/opt/spack/linux-centos8-zen2/gcc-10.2.0/qchem-5.4-akfmr7b3t57bfs6qan3padb2wnb2i7cl/exe/qcprog.exe_s Methylthiophene_Phi_15_Theta_300_Methylthiophene_Hydrogenated_Improper.qcin_3444413.0 ./qchem3444413/
                  Welcome to Q-Chem
     A Quantum Leap Into The Future Of Chemistry


 Q-Chem 5.4, Q-Chem, Inc., Pleasanton, CA (2021)

 License issued to: University of California, San Diego (site)

 E. Epifanovsky,  A. T. B. Gilbert,  Xintian Feng,  Joonho Lee,  Yuezhi Mao,  
 N. Mardirossian,  P. Pokhilko,  A. White,  M. Wormit,  M. P. Coons,  
 A. L. Dempwolff,  Zhengting Gan,  D. Hait,  P. R. Horn,  L. D. Jacobson,  
 I. Kaliman,  J. Kussmann,  A. W. Lange,  Ka Un Lao,  D. S. Levine,  Jie Liu,  
 S. C. McKenzie,  A. F. Morrison,  K. Nanda,  F. Plasser,  D. R. Rehn,  
 M. L. Vidal,  Zhi-Qiang You,  Ying Zhu,  B. Alam,  B. Albrecht,  
 A. Aldossary,  E. Alguire,  J. H. Andersen,  D. Barton,  K. Begam,  A. Behn,  
 Y. A. Bernard,  E. J. Berquist,  H. Burton,  A. Carreras,  K. Carter-Fenk,  
 R. Chakraborty,  A. D. Chien,  K. D. Closser,  V. Cofer-Shabica,  
 S. Dasgupta,  Jia Deng,  M. de Wergifosse,  M. Diedenhofen,  Hainam Do,  
 S. Ehlert,  Po-Tung Fang,  S. Fatehi,  Qingguo Feng,  J. Gayvert,  
 Qinghui Ge,  G. Gidofalvi,  M. Goldey,  J. Gomes,  C. Gonzalez-Espinoza,  
 S. Gulania,  A. Gunina,  M. W. D. Hanson-Heine,  P. H. P. Harbach,  
 A. W. Hauser,  M. F. Herbst,  M. Hernandez Vera,  M. Hodecker,  
 Z. C. Holden,  S. Houck,  Xunkun Huang,  Kerwin Hui,  B. C. Huynh,  
 M. Ivanov,  Hyunjun Ji,  Hanjie Jiang,  B. Kaduk,  S. Kaehler,  
 K. Khistyaev,  Jaehoon Kim,  P. Klunzinger,  Z. Koczor-Benda,  
 Joong Hoon Koh,  D. Kosenkov,  L. Koulias,  T. Kowalczyk,  C. M. Krauter,  
 K. Kue,  A. Kunitsa,  T. Kus,  A. Landau,  K. V. Lawler,  D. Lefrancois,  
 S. Lehtola,  Rain Li,  Yi-Pei Li,  Jiashu Liang,  M. Liebenthal,  
 Hung-Hsuan Lin,  You-Sheng Lin,  Fenglai Liu,  Kuan-Yu Liu,  
 M. Loipersberger,  A. Luenser,  A. Manjanath,  P. Manohar,  E. Mansoor,  
 S. F. Manzer,  Shan-Ping Mao,  A. V. Marenich,  T. Markovich,  S. Mason,  
 S. A. Maurer,  P. F. McLaughlin,  M. F. S. J. Menger,  J.-M. Mewes,  
 S. A. Mewes,  P. Morgante,  J. W. Mullinax,  T. S. Nguyen-Beck,  
 K. J. Oosterbaan,  G. Paran,  Alexander C. Paul,  Suranjan K. Paul,  
 F. Pavosevic,  Zheng Pei,  S. Prager,  E. I. Proynov,  E. Ramos,  B. Rana,  
 A. E. Rask,  A. Rettig,  R. M. Richard,  F. Rob,  E. Rossomme,  T. Scheele,  
 M. Scheurer,  M. Schneider,  N. Sergueev,  S. M. Sharada,  W. Skomorowski,  
 D. W. Small,  C. J. Stein,  Yu-Chuan Su,  E. J. Sundstrom,  Zhen Tao,  
 J. Thirman,  T. Tsuchimochi,  N. M. Tubman,  S. P. Veccham,  O. Vydrov,  
 J. Wenzel,  J. Witte,  A. Yamada,  Kun Yao,  S. Yeganeh,  S. R. Yost,  
 A. Zech,  Igor Ying Zhang,  Xing Zhang,  Yu Zhang,  D. Zuev,  
 A. Aspuru-Guzik,  A. T. Bell,  N. A. Besley,  K. B. Bravaya,  B. R. Brooks,  
 D. Casanova,  Jeng-Da Chai,  S. Coriani,  C. J. Cramer,  
 A. E. DePrince, III,  R. A. DiStasio Jr.,  A. Dreuw,  B. D. Dunietz,  
 T. R. Furlani,  W. A. Goddard III,  S. Grimme,  S. Hammes-Schiffer,  
 T. Head-Gordon,  W. J. Hehre,  Chao-Ping Hsu,  T.-C. Jagau,  Yousung Jung,  
 A. Klamt,  Jing Kong,  D. S. Lambrecht,  WanZhen Liang,  N. J. Mayhall,  
 C. W. McCurdy,  J. B. Neaton,  C. Ochsenfeld,  J. A. Parkhill,  R. Peverati,  
 V. A. Rassolov,  Yihan Shao,  L. V. Slipchenko,  T. Stauch,  R. P. Steele,  
 J. E. Subotnik,  A. J. W. Thom,  A. Tkatchenko,  D. G. Truhlar,  
 T. Van Voorhis,  T. A. Wesolowski,  K. B. Whaley,  H. L. Woodcock III,  
 P. M. Zimmerman,  S. Faraji,  P. M. W. Gill,  M. Head-Gordon,  
 J. M. Herbert,  A. I. Krylov

 Contributors to earlier versions of Q-Chem not listed above: 
 R. D. Adamson,  B. Austin,  R. Baer,  J. Baker,  G. J. O. Beran,  
 K. Brandhorst,  S. T. Brown,  E. F. C. Byrd,  A. K. Chakraborty,  
 G. K. L. Chan,  Chun-Min Chang,  Yunqing Chen,  C.-L. Cheng,  
 Siu Hung Chien,  D. M. Chipman,  D. L. Crittenden,  H. Dachsel,  
 R. J. Doerksen,  A. D. Dutoi,  R. G. Edgar,  J. Fosso-Tande,  
 L. Fusti-Molnar,  D. Ghosh,  A. Ghysels,  A. Golubeva-Zadorozhnaya,  
 J. Gonthier,  M. S. Gordon,  S. R. Gwaltney,  G. Hawkins,  J. E. Herr,  
 A. Heyden,  S. Hirata,  E. G. Hohenstein,  G. Kedziora,  F. J. Keil,  
 C. Kelley,  Jihan Kim,  R. A. King,  R. Z. Khaliullin,  P. P. Korambath,  
 W. Kurlancheek,  A. Laurent,  A. M. Lee,  M. S. Lee,  S. V. Levchenko,  
 Ching Yeh Lin,  D. Liotard,  E. Livshits,  R. C. Lochan,  I. Lotan,  
 L. A. Martinez-Martinez,  P. E. Maslen,  N. Nair,  D. P. O'Neill,  
 D. Neuhauser,  E. Neuscamman,  C. M. Oana,  R. Olivares-Amaya,  R. Olson,  
 T. M. Perrine,  B. Peters,  P. A. Pieniazek,  A. Prociuk,  Y. M. Rhee,  
 J. Ritchie,  M. A. Rohrdanz,  E. Rosta,  N. J. Russ,  H. F. Schaefer III,  
 M. W. Schmidt,  N. E. Schultz,  S. Sharma,  N. Shenvi,  C. D. Sherrill,  
 A. C. Simmonett,  A. Sodt,  T. Stein,  D. Stuck,  K. S. Thanthiriwatte,  
 V. Vanovschi,  L. Vogt,  Tao Wang,  A. Warshel,  M. A. Watson,  
 C. F. Williams,  Q. Wu,  X. Xu,  Jun Yang,  W. Zhang,  Yan Zhao

 Please cite Q-Chem as follows:
 Y. Shao et al., Mol. Phys. 113, 184-215 (2015)
 DOI: 10.1080/00268976.2014.952696

 Q-Chem 5.4.0 for Intel X86 EM64T Linux

 Parts of Q-Chem use Armadillo 9.800.1 (Horizon Scraper).
 http://arma.sourceforge.net/

 Q-Chem begins on Sun Jul 10 10:11:54 2022  

 Host: 
0

     Scratch files written to ./qchem3444413//
 May1621 |scratch|qcdevops|jenkins|workspace|build_RNUM    
 Processing $rem in /cm/shared/apps/spack/cpu/opt/spack/linux-centos8-zen2/gcc-10.2.0/qchem-5.4-akfmr7b3t57bfs6qan3padb2wnb2i7cl/config/preferences:
 Processing $rem in /home/theleonzhang/.qchemrc:
 Symmetry turned off for PCM/SM12/SMD calculation
 Core orbitals will be frozen

 Checking the input file for inconsistencies... 	...done.

--------------------------------------------------------------
User input:
--------------------------------------------------------------
$molecule
0 1
C	-0.173646	-0.553191	0.010543
C	0.049854	0.281009	1.109943
C	0.408054	1.617709	0.787243
H	-0.045546	-0.075291	2.146643
C	0.465254	1.830809	-0.601957
S	0.070254	0.357109	-1.476257
C	0.689654	2.668409	1.825143
H	0.579454	2.257309	2.847243
H	-0.002946	3.531409	1.736743
H	1.720954	3.069409	1.736743
C	-0.173646	-1.993891	0.010543
H	-0.713746	-1.993591	0.945743
H	-0.883046	-2.697691	-0.399057
H	0.646554	-2.512791	0.484143
H	0.710954	2.747709	-1.151057
$end

$rem
JOBTYPE		SP
EXCHANGE	HF
CORRELATION	pRIMP2
BASIS		cc-pvtz
METHOD		rimp2
AUX_BASIS	rimp2-cc-pvtz
SOLVENT_METHOD	PCM
PURECART	11111
SYMMETRY	false
MEM_TOTAL	110000
SCF_CONVERGENCE = 6
THRESH=10
$end



$solvent
dielectric 4.90
$end
--------------------------------------------------------------
 ----------------------------------------------------------------
             Standard Nuclear Orientation (Angstroms)
    I     Atom           X                Y                Z
 ----------------------------------------------------------------
    1      C      -0.1736460000    -0.5531910000     0.0105430000
    2      C       0.0498540000     0.2810090000     1.1099430000
    3      C       0.4080540000     1.6177090000     0.7872430000
    4      H      -0.0455460000    -0.0752910000     2.1466430000
    5      C       0.4652540000     1.8308090000    -0.6019570000
    6      S       0.0702540000     0.3571090000    -1.4762570000
    7      C       0.6896540000     2.6684090000     1.8251430000
    8      H       0.5794540000     2.2573090000     2.8472430000
    9      H      -0.0029460000     3.5314090000     1.7367430000
   10      H       1.7209540000     3.0694090000     1.7367430000
   11      C      -0.1736460000    -1.9938910000     0.0105430000
   12      H      -0.7137460000    -1.9935910000     0.9457430000
   13      H      -0.8830460000    -2.6976910000    -0.3990570000
   14      H       0.6465540000    -2.5127910000     0.4841430000
   15      H       0.7109540000     2.7477090000    -1.1510570000
 ----------------------------------------------------------------
 Nuclear Repulsion Energy =         344.55061633 hartrees
 There are       30 alpha and       30 beta electrons

 Q-Chem warning in module forms1/BasisType.C, line 2236:

 You are not using the predefined 5D/6D in this basis set.

 Requested basis set is cc-pVTZ
 There are 120 shells and 326 basis functions

 Total QAlloc Memory Limit 110000 MB
 Mega-Array Size       188 MB
 MEM_STATIC part       192 MB
 Discretize the solute cavity surface with Lebedev spheres
	Using 110 Lebedev grid points for each H atom
	Using 194 Lebedev grid points for other atoms
	Atomic van der Waals radii will be scaled by 1.20
 Remove points where switching function is < 1.0e-08
 Keep 1058 surface tesserae and discard 1180 interior tesserae
 Molecular Surface Area = 158.162 Angst**2

                       Distance Matrix (Angstroms)
             C (  1)   C (  2)   C (  3)   H (  4)   C (  5)   S (  6)
   C (  2)  1.398042
   C (  3)  2.377908  1.420989
   H (  4)  2.192652  1.100363  2.218101
   C (  5)  2.542991  2.346282  1.406613  3.383628
   S (  6)  1.760315  2.587400  2.612787  3.650450  1.758470
   C (  7)  3.796942  2.573040  1.503498  2.858631  2.577352  4.077377
   H (  8)  4.063611  2.684110  2.163808  2.514456  3.477344  4.750021
   H (  9)  4.437664  3.310705  2.175481  3.630168  2.929295  4.517179
   H ( 10)  4.437624  3.310684  2.175475  3.630107  2.929237  4.517162
   C ( 11)  1.440700  2.536494  3.739691  2.874084  3.925771  2.792358
   H ( 12)  1.800294  2.404964  3.784844  2.359773  4.290857  3.465044
   H ( 13)  2.295626  3.466993  4.657996  3.749530  4.729312  3.376528
   H ( 14)  2.176478  2.924550  4.148467  3.030563  4.480998  3.523012
   H ( 15)  3.609401  3.410833  2.263991  4.406410  1.096624  2.496241
             C (  7)   H (  8)   H (  9)   H ( 10)   C ( 11)   H ( 12)
   H (  8)  1.107175
   H (  9)  1.110080  1.787661
   H ( 10)  1.110043  1.787663  1.784734
   C ( 11)  5.076918  5.165920  5.791187  5.675058
   H ( 12)  4.947436  4.833034  5.626415  5.673395  1.079957
   H ( 13)  6.017930  6.101590  6.643636  6.678465  1.079979  1.527385
   H ( 14)  5.352100  5.323777  6.206707  5.821022  1.079945  1.527436
   H ( 15)  2.977332  4.030408  3.076236  3.076196  4.961311  5.376455
             H ( 13)   H ( 14)
   H ( 14)  1.775924
   H ( 15)  5.723523  5.509164
 
 Requested basis set is rimp2-cc-pVTZ
 There are 250 shells and 848 basis functions
 A cutoff of  1.0D-10 yielded   6191 shell pairs
 There are     45307 function pairs (     58262 Cartesian)
 Smallest overlap matrix eigenvalue = 9.83E-05

 Scale SEOQF with 1.000000e-01/1.000000e-01/1.000000e-01

 Standard Electronic Orientation quadrupole field applied
 Nucleus-field energy     =     0.0000000022 hartrees
 Guess from superposition of atomic densities
 Warning:  Energy on first SCF cycle will be non-variational
 SAD guess density has 60.000000 electrons

 -----------------------------------------------------------------------
  General SCF calculation program by
  Eric Jon Sundstrom, Paul Horn, Yuezhi Mao, Dmitri Zuev, Alec White,
  David Stuck, Shaama M.S., Shane Yost, Joonho Lee, David Small,
  Daniel Levine, Susi Lehtola, Hugh Burton, Evgeny Epifanovsky,
  Bang C. Huynh
 -----------------------------------------------------------------------
 Hartree-Fock
 A restricted SCF calculation will be
 performed using DIIS
 SCF converges when DIIS error is below 1.0e-06
 ---------------------------------------
  Cycle       Energy         DIIS error
 ---------------------------------------
    1    -632.1061522178      2.92e-02  
    2    -629.3423321323      1.91e-03  
    3    -629.4116213828      6.36e-04  
    4    -629.4185582513      3.27e-04  
    5    -629.4204044066      6.19e-05  
    6    -629.4205306918      2.45e-05  
    7    -629.4205610915      1.12e-05  
    8    -629.4205698858      4.88e-06  
    9    -629.4205713590      1.70e-06  
   10    -629.4205715319      5.24e-07  Convergence criterion met
 ---------------------------------------
 SCF time:   CPU 143.38s  wall 143.00s 

************** Final PCM Free Energy Summary **************
 G_electrostatic  =      -0.00551492 hartree =      -3.46066411 kcal/mol
 G_cavitation     =       0.00000000 hartree =       0.00000000 kcal/mol
 G_dispersion     =       0.00000000 hartree =       0.00000000 kcal/mol
 G_repulsion      =       0.00000000 hartree =       0.00000000 kcal/mol
 --------------------------------------------------
 Non-electrostatic Free Energy =       0.00000000 hartree =       0.00000000 kcal/mol
 Total                         =      -0.00551492 hartree =      -3.46066411 kcal/mol
 --------------------------------------------------
 SCF Energy (H0 + V/2)                       =    -629.42057153 
 Solute Internal Energy (H0)                 =    -629.41505661 
 Total Free Energy (H0 + V/2 + non-elec)     =    -629.42057153 hartree
                                             = -394967.36987848 kcal/mol
***********************************************************

 SCF   energy in the final basis set =     -629.4205715319
 Total energy in the final basis set =     -629.4205715319


 --------------------------------------------------------------
  Generalized many-body perturbation theory program
  by Joonho Lee, Fazle Rob, Xintian Feng, Evgeny Epifanovsky

 No regularization used 
 (reg. param. = 0.0000e+00)
  (P|Q)^-1/2 Time:  CPU 0.48 s  wall 0.48 s

 In RI-MP2 calculation: 
 # of frozen core orbitals: 11

 Components of the RIMP2 correlation energy:
        aaaa    correlation energy =        -0.1457915047 a.u.
        abab    correlation energy =        -0.8871443565 a.u.
        bbbb    correlation energy =        -0.1457915047 a.u.
        non-Brillouin singles      =        -0.0000000000 a.u.
        total same-spin energy     =        -0.2915830094 a.u.
        total opposite-spin energy =        -0.8871443565 a.u.

 Total  RIMP2   correlation energy =        -1.1787273659 a.u.
        RIMP2         total energy =      -630.5992988977 a.u.

 RI-MP2 Energy Time:  CPU 11.03 s  wall 11.05 s
 
 --------------------------------------------------------------
 
                    Orbital Energies (a.u.)
 --------------------------------------------------------------
 
 Alpha MOs
 -- Occupied --
-91.9748 -11.2779 -11.2562 -11.2474 -11.2330 -11.2273 -11.2169  -8.9749
 -6.6559  -6.6553  -6.6547  -1.1611  -1.0543  -0.9992  -0.9395  -0.8842
 -0.7424  -0.7230  -0.6478  -0.5917  -0.5770  -0.5663  -0.5594  -0.5425
 -0.5105  -0.4875  -0.4658  -0.4399  -0.3376  -0.2996
 -- Virtual --
  0.1027   0.1448   0.1502   0.1767   0.1799   0.1900   0.2069   0.2248
  0.2357   0.2427   0.2538   0.2674   0.3031   0.3190   0.3431   0.3522
  0.3827   0.3903   0.4136   0.4172   0.4318   0.4489   0.4744   0.4841
  0.4911   0.5032   0.5176   0.5297   0.5409   0.5459   0.5684   0.5861
  0.5999   0.6049   0.6177   0.6220   0.6365   0.6386   0.6478   0.6516
  0.6594   0.6682   0.6819   0.6980   0.7352   0.7532   0.7705   0.7761
  0.8061   0.8274   0.8452   0.8622   0.8721   0.8906   0.9193   0.9319
  0.9459   0.9685   0.9995   1.0170   1.0292   1.0444   1.0626   1.0716
  1.0840   1.0881   1.0996   1.1438   1.1614   1.1773   1.1998   1.2085
  1.2181   1.2302   1.2523   1.2620   1.2714   1.2977   1.3173   1.3296
  1.3409   1.3580   1.3847   1.3986   1.4249   1.4371   1.4596   1.4835
  1.4945   1.5181   1.5292   1.5396   1.5449   1.5667   1.5736   1.5829
  1.6043   1.6390   1.6609   1.6789   1.6861   1.7033   1.7164   1.7355
  1.7480   1.7832   1.8002   1.8263   1.8884   1.9145   1.9247   1.9547
  1.9898   2.0391   2.0993   2.1397   2.1832   2.1933   2.2066   2.2191
  2.2622   2.2893   2.3645   2.4170   2.4674   2.4847   2.5327   2.5533
  2.5772   2.5934   2.6434   2.6655   2.6732   2.6772   2.7176   2.7289
  2.7519   2.7597   2.7635   2.7887   2.8141   2.8514   2.8618   2.8893
  2.9053   2.9338   2.9633   2.9712   2.9969   3.0077   3.0366   3.0407
  3.0994   3.1088   3.1128   3.1296   3.1517   3.1568   3.1655   3.2025
  3.2120   3.2317   3.2635   3.2915   3.3026   3.3067   3.3185   3.3308
  3.3438   3.3547   3.3843   3.3852   3.3970   3.4231   3.4274   3.4338
  3.4417   3.4703   3.4875   3.5031   3.5129   3.5214   3.5380   3.5637
  3.5783   3.5963   3.6118   3.6171   3.6277   3.6396   3.6718   3.6804
  3.6869   3.7224   3.7260   3.7377   3.7615   3.7633   3.7847   3.7938
  3.8099   3.8332   3.8448   3.8853   3.8945   3.9136   3.9399   3.9580
  3.9610   3.9905   4.0130   4.0214   4.0445   4.0724   4.1009   4.1019
  4.1248   4.1345   4.1546   4.1733   4.1956   4.2229   4.2317   4.2528
  4.2788   4.2847   4.3150   4.3319   4.3426   4.3650   4.3966   4.4035
  4.4164   4.4270   4.4557   4.4673   4.4804   4.5151   4.5477   4.5835
  4.6109   4.6233   4.6403   4.6839   4.7221   4.7273   4.7468   4.7924
  4.8130   4.8334   4.8877   4.9037   4.9105   4.9496   5.0729   5.1021
  5.1241   5.1514   5.1572   5.1931   5.2387   5.2600   5.2826   5.3151
  5.3633   5.4005   5.4102   5.4431   5.4746   5.4890   5.5527   5.5637
  5.5802   5.6241   5.6453   5.6845   5.7097   5.8165   5.8531   5.8723
  5.9303   5.9882   6.0909   6.1336   6.2271   6.2473   6.2894   6.3835
  6.4270   6.5319   9.2426  11.3665  12.9127  13.7957  14.1782  14.5564
 --------------------------------------------------------------
 
          Ground-State Mulliken Net Atomic Charges

     Atom                 Charge (a.u.)
  ----------------------------------------
      1 C                     0.053586
      2 C                    -0.280119
      3 C                     0.040689
      4 H                     0.177611
      5 C                    -0.257533
      6 S                    -0.005017
      7 C                    -0.273105
      8 H                     0.101148
      9 H                     0.107050
     10 H                     0.107316
     11 C                    -0.374799
     12 H                     0.123777
     13 H                     0.156200
     14 H                     0.130698
     15 H                     0.192500
  ----------------------------------------
  Sum of atomic charges =     0.000000

 -----------------------------------------------------------------
                    Cartesian Multipole Moments
 -----------------------------------------------------------------
    Charge (ESU x 10^10)
                -0.0000
    Dipole Moment (Debye)
         X       0.0502      Y      -0.2075      Z       2.0859
       Tot       2.0968
    Quadrupole Moments (Debye-Ang)
        XX     -53.1756     XY       3.1018     YY     -42.7546
        XZ       0.2592     YZ      -0.8525     ZZ     -48.8482
    Octopole Moments (Debye-Ang^2)
       XXX     -27.9721    XXY     -30.0512    XYY      -6.4523
       YYY     -77.4582    XXZ      -2.2818    XYZ      -1.5767
       YYZ      -2.4616    XZZ      -7.7404    YZZ     -23.2654
       ZZZ       0.7371
    Hexadecapole Moments (Debye-Ang^3)
      XXXX    -118.1233   XXXY     -81.6822   XXYY    -153.5018
      XYYY     -63.0982   YYYY    -778.1460   XXXZ     -23.0858
      XXYZ     -28.9180   XYYZ      -8.0469   YYYZ    -100.6733
      XXZZ    -106.5967   XYZZ     -22.6371   YYZZ    -210.4725
      XZZZ     -26.5843   YZZZ     -93.7782   ZZZZ    -483.6645
 -----------------------------------------------------------------
 Total job time:  155.41s(wall), 154.75s(cpu) 
 Sun Jul 10 10:14:30 2022

        *************************************************************
        *                                                           *
        *  Thank you very much for using Q-Chem.  Have a nice day.  *
        *                                                           *
        *************************************************************


remove work dirs ./qchem3444413.0 -- ./qchem3444413.-1
rm -rf ./qchem3444413
