You are running Q-Chem version: 5.4.0

#
# job setting
#
local host:  exp-5-33
current dir: /expanse/lustre/scratch/theleonzhang/temp_project/Hydrogenated_Impropers_Test
input file:  Methylthiophene_Phi_30_Theta_190_Methylthiophene_Hydrogenated_Improper_Alternate.qcin
output file: 
nprocs     : 0
nthreads   : 1
#
# qchem installation setting
#
QC:          /cm/shared/apps/spack/cpu/opt/spack/linux-centos8-zen2/gcc-10.2.0/qchem-5.4-akfmr7b3t57bfs6qan3padb2wnb2i7cl
QCAUX:       /cm/shared/apps/spack/cpu/opt/spack/linux-centos8-zen2/gcc-10.2.0/qchem-5.4-akfmr7b3t57bfs6qan3padb2wnb2i7cl/qcaux
QCPROG:      /cm/shared/apps/spack/cpu/opt/spack/linux-centos8-zen2/gcc-10.2.0/qchem-5.4-akfmr7b3t57bfs6qan3padb2wnb2i7cl/exe/qcprog.exe_s
QCPROG_S:    /cm/shared/apps/spack/cpu/opt/spack/linux-centos8-zen2/gcc-10.2.0/qchem-5.4-akfmr7b3t57bfs6qan3padb2wnb2i7cl/exe/qcprog.exe_s
PARALLEL:    -DSERIAL
QCMPI:       mpich
#
# qchem directory setting
#
qcrun:       qchem2179721
QCSCRATCH:   .
QCLOCALSCR:  
QCTMPDIR:    .
QCFILEPREF:  ./qchem2179721
QCSAVEDIR:   
workdirs:    ./qchem2179721
workdir0:    ./qchem2179721
partmpdirs =  
#
# parallel setting
#
QCRSH:           ssh
QCMPI:           mpich
QCMPIRUN:        /cm/shared/apps/spack/cpu/opt/spack/linux-centos8-zen2/gcc-10.2.0/qchem-5.4-akfmr7b3t57bfs6qan3padb2wnb2i7cl/bin/mpi/mpirun_qchem
QCMACHINEFILE:   ./qchem2179721/hostfile

#
# env setting
#
exported envs:   QC QCAUX QCSCRATCH QCRUNNAME QCFILEPREF QCPROG QCPROG_S GUIFILE

Running Job 1 of 1 Methylthiophene_Phi_30_Theta_190_Methylthiophene_Hydrogenated_Improper_Alternate.qcin
qchem Methylthiophene_Phi_30_Theta_190_Methylthiophene_Hydrogenated_Improper_Alternate.qcin_2179721.0 ./qchem2179721/ 0
/cm/shared/apps/spack/cpu/opt/spack/linux-centos8-zen2/gcc-10.2.0/qchem-5.4-akfmr7b3t57bfs6qan3padb2wnb2i7cl/exe/qcprog.exe_s Methylthiophene_Phi_30_Theta_190_Methylthiophene_Hydrogenated_Improper_Alternate.qcin_2179721.0 ./qchem2179721/
                  Welcome to Q-Chem
     A Quantum Leap Into The Future Of Chemistry


 Q-Chem 5.4, Q-Chem, Inc., Pleasanton, CA (2021)

 License issued to: University of California, San Diego (site)

 E. Epifanovsky,  A. T. B. Gilbert,  Xintian Feng,  Joonho Lee,  Yuezhi Mao,  
 N. Mardirossian,  P. Pokhilko,  A. White,  M. Wormit,  M. P. Coons,  
 A. L. Dempwolff,  Zhengting Gan,  D. Hait,  P. R. Horn,  L. D. Jacobson,  
 I. Kaliman,  J. Kussmann,  A. W. Lange,  Ka Un Lao,  D. S. Levine,  Jie Liu,  
 S. C. McKenzie,  A. F. Morrison,  K. Nanda,  F. Plasser,  D. R. Rehn,  
 M. L. Vidal,  Zhi-Qiang You,  Ying Zhu,  B. Alam,  B. Albrecht,  
 A. Aldossary,  E. Alguire,  J. H. Andersen,  D. Barton,  K. Begam,  A. Behn,  
 Y. A. Bernard,  E. J. Berquist,  H. Burton,  A. Carreras,  K. Carter-Fenk,  
 R. Chakraborty,  A. D. Chien,  K. D. Closser,  V. Cofer-Shabica,  
 S. Dasgupta,  Jia Deng,  M. de Wergifosse,  M. Diedenhofen,  Hainam Do,  
 S. Ehlert,  Po-Tung Fang,  S. Fatehi,  Qingguo Feng,  J. Gayvert,  
 Qinghui Ge,  G. Gidofalvi,  M. Goldey,  J. Gomes,  C. Gonzalez-Espinoza,  
 S. Gulania,  A. Gunina,  M. W. D. Hanson-Heine,  P. H. P. Harbach,  
 A. W. Hauser,  M. F. Herbst,  M. Hernandez Vera,  M. Hodecker,  
 Z. C. Holden,  S. Houck,  Xunkun Huang,  Kerwin Hui,  B. C. Huynh,  
 M. Ivanov,  Hyunjun Ji,  Hanjie Jiang,  B. Kaduk,  S. Kaehler,  
 K. Khistyaev,  Jaehoon Kim,  P. Klunzinger,  Z. Koczor-Benda,  
 Joong Hoon Koh,  D. Kosenkov,  L. Koulias,  T. Kowalczyk,  C. M. Krauter,  
 K. Kue,  A. Kunitsa,  T. Kus,  A. Landau,  K. V. Lawler,  D. Lefrancois,  
 S. Lehtola,  Rain Li,  Yi-Pei Li,  Jiashu Liang,  M. Liebenthal,  
 Hung-Hsuan Lin,  You-Sheng Lin,  Fenglai Liu,  Kuan-Yu Liu,  
 M. Loipersberger,  A. Luenser,  A. Manjanath,  P. Manohar,  E. Mansoor,  
 S. F. Manzer,  Shan-Ping Mao,  A. V. Marenich,  T. Markovich,  S. Mason,  
 S. A. Maurer,  P. F. McLaughlin,  M. F. S. J. Menger,  J.-M. Mewes,  
 S. A. Mewes,  P. Morgante,  J. W. Mullinax,  T. S. Nguyen-Beck,  
 K. J. Oosterbaan,  G. Paran,  Alexander C. Paul,  Suranjan K. Paul,  
 F. Pavosevic,  Zheng Pei,  S. Prager,  E. I. Proynov,  E. Ramos,  B. Rana,  
 A. E. Rask,  A. Rettig,  R. M. Richard,  F. Rob,  E. Rossomme,  T. Scheele,  
 M. Scheurer,  M. Schneider,  N. Sergueev,  S. M. Sharada,  W. Skomorowski,  
 D. W. Small,  C. J. Stein,  Yu-Chuan Su,  E. J. Sundstrom,  Zhen Tao,  
 J. Thirman,  T. Tsuchimochi,  N. M. Tubman,  S. P. Veccham,  O. Vydrov,  
 J. Wenzel,  J. Witte,  A. Yamada,  Kun Yao,  S. Yeganeh,  S. R. Yost,  
 A. Zech,  Igor Ying Zhang,  Xing Zhang,  Yu Zhang,  D. Zuev,  
 A. Aspuru-Guzik,  A. T. Bell,  N. A. Besley,  K. B. Bravaya,  B. R. Brooks,  
 D. Casanova,  Jeng-Da Chai,  S. Coriani,  C. J. Cramer,  
 A. E. DePrince, III,  R. A. DiStasio Jr.,  A. Dreuw,  B. D. Dunietz,  
 T. R. Furlani,  W. A. Goddard III,  S. Grimme,  S. Hammes-Schiffer,  
 T. Head-Gordon,  W. J. Hehre,  Chao-Ping Hsu,  T.-C. Jagau,  Yousung Jung,  
 A. Klamt,  Jing Kong,  D. S. Lambrecht,  WanZhen Liang,  N. J. Mayhall,  
 C. W. McCurdy,  J. B. Neaton,  C. Ochsenfeld,  J. A. Parkhill,  R. Peverati,  
 V. A. Rassolov,  Yihan Shao,  L. V. Slipchenko,  T. Stauch,  R. P. Steele,  
 J. E. Subotnik,  A. J. W. Thom,  A. Tkatchenko,  D. G. Truhlar,  
 T. Van Voorhis,  T. A. Wesolowski,  K. B. Whaley,  H. L. Woodcock III,  
 P. M. Zimmerman,  S. Faraji,  P. M. W. Gill,  M. Head-Gordon,  
 J. M. Herbert,  A. I. Krylov

 Contributors to earlier versions of Q-Chem not listed above: 
 R. D. Adamson,  B. Austin,  R. Baer,  J. Baker,  G. J. O. Beran,  
 K. Brandhorst,  S. T. Brown,  E. F. C. Byrd,  A. K. Chakraborty,  
 G. K. L. Chan,  Chun-Min Chang,  Yunqing Chen,  C.-L. Cheng,  
 Siu Hung Chien,  D. M. Chipman,  D. L. Crittenden,  H. Dachsel,  
 R. J. Doerksen,  A. D. Dutoi,  R. G. Edgar,  J. Fosso-Tande,  
 L. Fusti-Molnar,  D. Ghosh,  A. Ghysels,  A. Golubeva-Zadorozhnaya,  
 J. Gonthier,  M. S. Gordon,  S. R. Gwaltney,  G. Hawkins,  J. E. Herr,  
 A. Heyden,  S. Hirata,  E. G. Hohenstein,  G. Kedziora,  F. J. Keil,  
 C. Kelley,  Jihan Kim,  R. A. King,  R. Z. Khaliullin,  P. P. Korambath,  
 W. Kurlancheek,  A. Laurent,  A. M. Lee,  M. S. Lee,  S. V. Levchenko,  
 Ching Yeh Lin,  D. Liotard,  E. Livshits,  R. C. Lochan,  I. Lotan,  
 L. A. Martinez-Martinez,  P. E. Maslen,  N. Nair,  D. P. O'Neill,  
 D. Neuhauser,  E. Neuscamman,  C. M. Oana,  R. Olivares-Amaya,  R. Olson,  
 T. M. Perrine,  B. Peters,  P. A. Pieniazek,  A. Prociuk,  Y. M. Rhee,  
 J. Ritchie,  M. A. Rohrdanz,  E. Rosta,  N. J. Russ,  H. F. Schaefer III,  
 M. W. Schmidt,  N. E. Schultz,  S. Sharma,  N. Shenvi,  C. D. Sherrill,  
 A. C. Simmonett,  A. Sodt,  T. Stein,  D. Stuck,  K. S. Thanthiriwatte,  
 V. Vanovschi,  L. Vogt,  Tao Wang,  A. Warshel,  M. A. Watson,  
 C. F. Williams,  Q. Wu,  X. Xu,  Jun Yang,  W. Zhang,  Yan Zhao

 Please cite Q-Chem as follows:
 Y. Shao et al., Mol. Phys. 113, 184-215 (2015)
 DOI: 10.1080/00268976.2014.952696

 Q-Chem 5.4.0 for Intel X86 EM64T Linux

 Parts of Q-Chem use Armadillo 9.800.1 (Horizon Scraper).
 http://arma.sourceforge.net/

 Q-Chem begins on Sun Jul 10 10:14:40 2022  

 Host: 
0

     Scratch files written to ./qchem2179721//
 May1621 |scratch|qcdevops|jenkins|workspace|build_RNUM    
 Processing $rem in /cm/shared/apps/spack/cpu/opt/spack/linux-centos8-zen2/gcc-10.2.0/qchem-5.4-akfmr7b3t57bfs6qan3padb2wnb2i7cl/config/preferences:
 Processing $rem in /home/theleonzhang/.qchemrc:
 Symmetry turned off for PCM/SM12/SMD calculation
 Core orbitals will be frozen

 Checking the input file for inconsistencies... 	...done.

--------------------------------------------------------------
User input:
--------------------------------------------------------------
$molecule
0 1
C	-0.344055	-0.485421	0.014755
C	0.087745	0.262479	1.114155
C	0.779745	1.460979	0.791455
H	-0.096655	-0.056921	2.150855
C	0.890045	1.652079	-0.597745
S	0.127145	0.330679	-1.472045
C	1.323645	2.402979	1.829355
H	1.110845	2.034379	2.851455
H	0.877945	3.415779	1.740955
H	2.423645	2.523379	1.740955
C	-0.344055	-1.926121	0.014755
H	0.719545	-1.925821	0.202455
H	-0.486355	-2.629921	0.821455
H	-0.179555	-2.445021	-0.917945
H	1.364745	2.474079	-1.146845
$end

$rem
JOBTYPE		SP
EXCHANGE	HF
CORRELATION	pRIMP2
BASIS		cc-pvtz
METHOD		rimp2
AUX_BASIS	rimp2-cc-pvtz
SOLVENT_METHOD	PCM
PURECART	11111
SYMMETRY	false
MEM_TOTAL	110000
SCF_CONVERGENCE = 6
THRESH=10
$end



$solvent
dielectric 4.90
$end
--------------------------------------------------------------
 ----------------------------------------------------------------
             Standard Nuclear Orientation (Angstroms)
    I     Atom           X                Y                Z
 ----------------------------------------------------------------
    1      C      -0.3440550000    -0.4854210000     0.0147550000
    2      C       0.0877450000     0.2624790000     1.1141550000
    3      C       0.7797450000     1.4609790000     0.7914550000
    4      H      -0.0966550000    -0.0569210000     2.1508550000
    5      C       0.8900450000     1.6520790000    -0.5977450000
    6      S       0.1271450000     0.3306790000    -1.4720450000
    7      C       1.3236450000     2.4029790000     1.8293550000
    8      H       1.1108450000     2.0343790000     2.8514550000
    9      H       0.8779450000     3.4157790000     1.7409550000
   10      H       2.4236450000     2.5233790000     1.7409550000
   11      C      -0.3440550000    -1.9261210000     0.0147550000
   12      H       0.7195450000    -1.9258210000     0.2024550000
   13      H      -0.4863550000    -2.6299210000     0.8214550000
   14      H      -0.1795550000    -2.4450210000    -0.9179450000
   15      H       1.3647450000     2.4740790000    -1.1468450000
 ----------------------------------------------------------------
 Nuclear Repulsion Energy =         346.49302162 hartrees
 There are       30 alpha and       30 beta electrons

 Q-Chem warning in module forms1/BasisType.C, line 2236:

 You are not using the predefined 5D/6D in this basis set.

 Requested basis set is cc-pVTZ
 There are 120 shells and 326 basis functions

 Total QAlloc Memory Limit 110000 MB
 Mega-Array Size       188 MB
 MEM_STATIC part       192 MB
 Discretize the solute cavity surface with Lebedev spheres
	Using 110 Lebedev grid points for each H atom
	Using 194 Lebedev grid points for other atoms
	Atomic van der Waals radii will be scaled by 1.20
 Remove points where switching function is < 1.0e-08
 Keep 1048 surface tesserae and discard 1190 interior tesserae
 Molecular Surface Area = 158.191 Angst**2

                       Distance Matrix (Angstroms)
             C (  1)   C (  2)   C (  3)   H (  4)   C (  5)   S (  6)
   C (  2)  1.398029
   C (  3)  2.377953  1.421056
   H (  4)  2.192656  1.100348  2.218122
   C (  5)  2.543043  2.346332  1.406614  3.383646
   S (  6)  1.760291  2.587399  2.612833  3.650442  1.758555
   C (  7)  3.796953  2.573072  1.503472  2.858622  2.577339  4.077411
   H (  8)  4.063618  2.684134  2.163796  2.514445  3.477339  4.750043
   H (  9)  4.437613  3.310679  2.175416  3.630084  2.929215  4.517180
   H ( 10)  4.437658  3.310736  2.175466  3.630135  2.929268  4.517213
   C ( 11)  1.440700  2.486986  3.652210  2.849217  3.834276  2.743310
   H ( 12)  1.800341  2.453370  3.438162  2.820502  3.670253  2.871703
   H ( 13)  2.295625  2.963316  4.282449  2.922242  4.716368  3.794954
   H ( 14)  2.176470  3.395797  4.370256  3.889399  4.246505  2.847034
   H ( 15)  3.609425  3.410869  2.263980  4.406413  1.096602  2.496312
             C (  7)   H (  8)   H (  9)   H ( 10)   C ( 11)   H ( 12)
   H (  8)  1.107176
   H (  9)  1.110057  1.787657
   H ( 10)  1.110095  1.787673  1.784815
   C ( 11)  4.981476  5.084207  5.745341  5.517063
   H ( 12)  4.663716  4.780534  5.561004  5.006628  1.080035
   H ( 13)  5.442614  5.331758  6.265563  5.989164  1.079976  1.527453
   H ( 14)  5.771514  5.994876  6.522042  6.207366  1.079929  1.527497
   H ( 15)  2.977333  4.030410  3.076225  3.076213  4.861180  4.647151
             H ( 13)   H ( 14)
   H ( 14)  1.775902
   H ( 15)  5.775084  5.160892
 
 Requested basis set is rimp2-cc-pVTZ
 There are 250 shells and 848 basis functions
 A cutoff of  1.0D-10 yielded   6247 shell pairs
 There are     45833 function pairs (     58949 Cartesian)
 Smallest overlap matrix eigenvalue = 1.20E-04

 Scale SEOQF with 1.000000e-01/1.000000e-01/1.000000e-01

 Standard Electronic Orientation quadrupole field applied
 Nucleus-field energy     =     0.0000000011 hartrees
 Guess from superposition of atomic densities
 Warning:  Energy on first SCF cycle will be non-variational
 SAD guess density has 60.000000 electrons

 -----------------------------------------------------------------------
  General SCF calculation program by
  Eric Jon Sundstrom, Paul Horn, Yuezhi Mao, Dmitri Zuev, Alec White,
  David Stuck, Shaama M.S., Shane Yost, Joonho Lee, David Small,
  Daniel Levine, Susi Lehtola, Hugh Burton, Evgeny Epifanovsky,
  Bang C. Huynh
 -----------------------------------------------------------------------
 Hartree-Fock
 A restricted SCF calculation will be
 performed using DIIS
 SCF converges when DIIS error is below 1.0e-06
 ---------------------------------------
  Cycle       Energy         DIIS error
 ---------------------------------------
    1    -632.1271885989      2.93e-02  
    2    -629.3266898288      1.95e-03  
    3    -629.3973326556      6.98e-04  
    4    -629.4050086610      3.56e-04  
    5    -629.4072273670      6.34e-05  
    6    -629.4073599113      2.64e-05  
    7    -629.4073926374      1.15e-05  
    8    -629.4074019335      5.34e-06  
    9    -629.4074035973      1.77e-06  
   10    -629.4074038171      6.32e-07  Convergence criterion met
 ---------------------------------------
 SCF time:   CPU 144.56s  wall 145.00s 

************** Final PCM Free Energy Summary **************
 G_electrostatic  =      -0.00544176 hartree =      -3.41475750 kcal/mol
 G_cavitation     =       0.00000000 hartree =       0.00000000 kcal/mol
 G_dispersion     =       0.00000000 hartree =       0.00000000 kcal/mol
 G_repulsion      =       0.00000000 hartree =       0.00000000 kcal/mol
 --------------------------------------------------
 Non-electrostatic Free Energy =       0.00000000 hartree =       0.00000000 kcal/mol
 Total                         =      -0.00544176 hartree =      -3.41475750 kcal/mol
 --------------------------------------------------
 SCF Energy (H0 + V/2)                       =    -629.40740382 
 Solute Internal Energy (H0)                 =    -629.40196205 
 Total Free Energy (H0 + V/2 + non-elec)     =    -629.40740382 hartree
                                             = -394959.10701277 kcal/mol
***********************************************************

 SCF   energy in the final basis set =     -629.4074038171
 Total energy in the final basis set =     -629.4074038171


 --------------------------------------------------------------
  Generalized many-body perturbation theory program
  by Joonho Lee, Fazle Rob, Xintian Feng, Evgeny Epifanovsky

 No regularization used 
 (reg. param. = 0.0000e+00)
  (P|Q)^-1/2 Time:  CPU 0.51 s  wall 0.51 s

 In RI-MP2 calculation: 
 # of frozen core orbitals: 11

 Components of the RIMP2 correlation energy:
        aaaa    correlation energy =        -0.1458383471 a.u.
        abab    correlation energy =        -0.8877997382 a.u.
        bbbb    correlation energy =        -0.1458383471 a.u.
        non-Brillouin singles      =        -0.0000000000 a.u.
        total same-spin energy     =        -0.2916766942 a.u.
        total opposite-spin energy =        -0.8877997382 a.u.

 Total  RIMP2   correlation energy =        -1.1794764324 a.u.
        RIMP2         total energy =      -630.5868802495 a.u.

 RI-MP2 Energy Time:  CPU 12.61 s  wall 12.63 s
 
 --------------------------------------------------------------
 
                    Orbital Energies (a.u.)
 --------------------------------------------------------------
 
 Alpha MOs
 -- Occupied --
-91.9789 -11.2811 -11.2533 -11.2480 -11.2269 -11.2246 -11.2204  -8.9788
 -6.6598  -6.6592  -6.6586  -1.1641  -1.0566  -0.9969  -0.9401  -0.8819
 -0.7447  -0.7208  -0.6483  -0.5869  -0.5775  -0.5665  -0.5548  -0.5458
 -0.5071  -0.4918  -0.4629  -0.4581  -0.3381  -0.2874
 -- Virtual --
  0.0973   0.1450   0.1544   0.1746   0.1850   0.1917   0.2068   0.2232
  0.2275   0.2419   0.2492   0.2591   0.2956   0.3276   0.3413   0.3533
  0.3799   0.3923   0.3970   0.4195   0.4445   0.4594   0.4637   0.4740
  0.4927   0.5004   0.5191   0.5320   0.5392   0.5595   0.5689   0.5863
  0.5976   0.6094   0.6140   0.6160   0.6286   0.6383   0.6399   0.6478
  0.6573   0.6695   0.6741   0.6987   0.7141   0.7463   0.7638   0.7830
  0.7890   0.8200   0.8353   0.8419   0.8623   0.8962   0.9016   0.9309
  0.9391   0.9742   1.0110   1.0302   1.0487   1.0526   1.0674   1.0761
  1.0827   1.1015   1.1198   1.1388   1.1568   1.1607   1.1745   1.2030
  1.2272   1.2546   1.2591   1.2630   1.2704   1.2955   1.3149   1.3359
  1.3522   1.3622   1.3922   1.4193   1.4296   1.4381   1.4572   1.4752
  1.4832   1.5031   1.5093   1.5310   1.5346   1.5451   1.5583   1.5762
  1.6114   1.6334   1.6421   1.6645   1.6853   1.6997   1.7240   1.7562
  1.7663   1.8023   1.8052   1.8276   1.8752   1.9146   1.9417   1.9747
  2.0087   2.0392   2.1008   2.1398   2.1824   2.1868   2.2229   2.2431
  2.2735   2.2829   2.3241   2.4078   2.4293   2.4631   2.5113   2.5431
  2.5661   2.5963   2.6139   2.6511   2.6725   2.6935   2.7343   2.7383
  2.7595   2.7616   2.7802   2.7920   2.8151   2.8396   2.8673   2.8965
  2.8991   2.9644   2.9689   2.9954   3.0294   3.0333   3.0594   3.0803
  3.0995   3.1136   3.1246   3.1412   3.1484   3.1564   3.1683   3.1832
  3.1886   3.2416   3.2537   3.2705   3.2880   3.2930   3.3146   3.3334
  3.3365   3.3543   3.3817   3.3904   3.4008   3.4142   3.4276   3.4307
  3.4473   3.4766   3.4815   3.4966   3.5033   3.5264   3.5492   3.5653
  3.5723   3.5942   3.6103   3.6199   3.6250   3.6403   3.6470   3.6810
  3.7048   3.7056   3.7303   3.7434   3.7521   3.7582   3.7947   3.8051
  3.8112   3.8445   3.8625   3.8680   3.9110   3.9385   3.9506   3.9547
  3.9761   4.0060   4.0115   4.0411   4.0546   4.0738   4.0967   4.1252
  4.1355   4.1560   4.1609   4.2067   4.2109   4.2402   4.2536   4.2604
  4.2882   4.3067   4.3253   4.3408   4.3567   4.3701   4.3949   4.4012
  4.4067   4.4400   4.4644   4.4760   4.4806   4.5043   4.5511   4.5796
  4.5983   4.6147   4.6476   4.6627   4.7065   4.7225   4.7465   4.7851
  4.8222   4.8277   4.8603   4.8797   4.9010   4.9372   5.0796   5.1078
  5.1094   5.1326   5.1625   5.1826   5.2085   5.2634   5.2941   5.3344
  5.3684   5.4026   5.4180   5.4393   5.4672   5.5241   5.5468   5.5611
  5.6000   5.6168   5.6265   5.6777   5.7040   5.8175   5.8352   5.8516
  5.9135   5.9974   6.0239   6.1489   6.2283   6.2417   6.2762   6.3691
  6.4287   6.5027   9.2053  11.4570  12.8678  13.7783  14.1696  14.3948
 --------------------------------------------------------------
 
          Ground-State Mulliken Net Atomic Charges

     Atom                 Charge (a.u.)
  ----------------------------------------
      1 C                     0.036753
      2 C                    -0.290063
      3 C                     0.051688
      4 H                     0.173788
      5 C                    -0.275512
      6 S                     0.006611
      7 C                    -0.270888
      8 H                     0.101687
      9 H                     0.107696
     10 H                     0.106161
     11 C                    -0.378375
     12 H                     0.150548
     13 H                     0.153582
     14 H                     0.132985
     15 H                     0.193340
  ----------------------------------------
  Sum of atomic charges =     0.000000

 -----------------------------------------------------------------
                    Cartesian Multipole Moments
 -----------------------------------------------------------------
    Charge (ESU x 10^10)
                -0.0000
    Dipole Moment (Debye)
         X       1.3404      Y      -0.5972      Z       1.5453
       Tot       2.1310
    Quadrupole Moments (Debye-Ang)
        XX     -52.8340     XY       2.5855     YY     -44.3571
        XZ       0.0718     YZ      -0.2171     ZZ     -48.4263
    Octopole Moments (Debye-Ang^2)
       XXX     -53.1287    XXY     -20.7453    XYY      -8.3585
       YYY     -72.3447    XXZ      -2.4533    XYZ      -0.7507
       YYZ      -2.4958    XZZ     -15.6133    YZZ     -21.9274
       ZZZ       0.7010
    Hexadecapole Moments (Debye-Ang^3)
      XXXX    -218.1188   XXXY    -135.7975   XXYY    -152.0099
      XYYY    -125.9693   YYYY    -676.9167   XXXZ     -46.1970
      XXYZ     -29.2087   XYYZ     -21.2673   YYYZ     -91.0395
      XXZZ    -120.7093   XYZZ     -37.2061   YYZZ    -188.7404
      XZZZ     -51.0803   YZZZ     -87.2477   ZZZZ    -483.1713
 -----------------------------------------------------------------
 Total job time:  158.43s(wall), 157.54s(cpu) 
 Sun Jul 10 10:17:18 2022

        *************************************************************
        *                                                           *
        *  Thank you very much for using Q-Chem.  Have a nice day.  *
        *                                                           *
        *************************************************************


remove work dirs ./qchem2179721.0 -- ./qchem2179721.-1
rm -rf ./qchem2179721
You are running Q-Chem version: 5.4.0

#
# job setting
#
local host:  exp-2-07
current dir: /expanse/lustre/scratch/theleonzhang/temp_project/Hydrogenated_Impropers_Test
input file:  Methylthiophene_Phi_30_Theta_190_Methylthiophene_Hydrogenated_Improper_Alternate.qcin
output file: 
nprocs     : 0
nthreads   : 1
#
# qchem installation setting
#
QC:          /cm/shared/apps/spack/cpu/opt/spack/linux-centos8-zen2/gcc-10.2.0/qchem-5.4-akfmr7b3t57bfs6qan3padb2wnb2i7cl
QCAUX:       /cm/shared/apps/spack/cpu/opt/spack/linux-centos8-zen2/gcc-10.2.0/qchem-5.4-akfmr7b3t57bfs6qan3padb2wnb2i7cl/qcaux
QCPROG:      /cm/shared/apps/spack/cpu/opt/spack/linux-centos8-zen2/gcc-10.2.0/qchem-5.4-akfmr7b3t57bfs6qan3padb2wnb2i7cl/exe/qcprog.exe_s
QCPROG_S:    /cm/shared/apps/spack/cpu/opt/spack/linux-centos8-zen2/gcc-10.2.0/qchem-5.4-akfmr7b3t57bfs6qan3padb2wnb2i7cl/exe/qcprog.exe_s
PARALLEL:    -DSERIAL
QCMPI:       mpich
#
# qchem directory setting
#
qcrun:       qchem1017745
QCSCRATCH:   .
QCLOCALSCR:  
QCTMPDIR:    .
QCFILEPREF:  ./qchem1017745
QCSAVEDIR:   
workdirs:    ./qchem1017745
workdir0:    ./qchem1017745
partmpdirs =  
#
# parallel setting
#
QCRSH:           ssh
QCMPI:           mpich
QCMPIRUN:        /cm/shared/apps/spack/cpu/opt/spack/linux-centos8-zen2/gcc-10.2.0/qchem-5.4-akfmr7b3t57bfs6qan3padb2wnb2i7cl/bin/mpi/mpirun_qchem
QCMACHINEFILE:   ./qchem1017745/hostfile

#
# env setting
#
exported envs:   QC QCAUX QCSCRATCH QCRUNNAME QCFILEPREF QCPROG QCPROG_S GUIFILE

Running Job 1 of 1 Methylthiophene_Phi_30_Theta_190_Methylthiophene_Hydrogenated_Improper_Alternate.qcin
qchem Methylthiophene_Phi_30_Theta_190_Methylthiophene_Hydrogenated_Improper_Alternate.qcin_1017745.0 ./qchem1017745/ 0
/cm/shared/apps/spack/cpu/opt/spack/linux-centos8-zen2/gcc-10.2.0/qchem-5.4-akfmr7b3t57bfs6qan3padb2wnb2i7cl/exe/qcprog.exe_s Methylthiophene_Phi_30_Theta_190_Methylthiophene_Hydrogenated_Improper_Alternate.qcin_1017745.0 ./qchem1017745/
                  Welcome to Q-Chem
     A Quantum Leap Into The Future Of Chemistry


 Q-Chem 5.4, Q-Chem, Inc., Pleasanton, CA (2021)

 License issued to: University of California, San Diego (site)

 E. Epifanovsky,  A. T. B. Gilbert,  Xintian Feng,  Joonho Lee,  Yuezhi Mao,  
 N. Mardirossian,  P. Pokhilko,  A. White,  M. Wormit,  M. P. Coons,  
 A. L. Dempwolff,  Zhengting Gan,  D. Hait,  P. R. Horn,  L. D. Jacobson,  
 I. Kaliman,  J. Kussmann,  A. W. Lange,  Ka Un Lao,  D. S. Levine,  Jie Liu,  
 S. C. McKenzie,  A. F. Morrison,  K. Nanda,  F. Plasser,  D. R. Rehn,  
 M. L. Vidal,  Zhi-Qiang You,  Ying Zhu,  B. Alam,  B. Albrecht,  
 A. Aldossary,  E. Alguire,  J. H. Andersen,  D. Barton,  K. Begam,  A. Behn,  
 Y. A. Bernard,  E. J. Berquist,  H. Burton,  A. Carreras,  K. Carter-Fenk,  
 R. Chakraborty,  A. D. Chien,  K. D. Closser,  V. Cofer-Shabica,  
 S. Dasgupta,  Jia Deng,  M. de Wergifosse,  M. Diedenhofen,  Hainam Do,  
 S. Ehlert,  Po-Tung Fang,  S. Fatehi,  Qingguo Feng,  J. Gayvert,  
 Qinghui Ge,  G. Gidofalvi,  M. Goldey,  J. Gomes,  C. Gonzalez-Espinoza,  
 S. Gulania,  A. Gunina,  M. W. D. Hanson-Heine,  P. H. P. Harbach,  
 A. W. Hauser,  M. F. Herbst,  M. Hernandez Vera,  M. Hodecker,  
 Z. C. Holden,  S. Houck,  Xunkun Huang,  Kerwin Hui,  B. C. Huynh,  
 M. Ivanov,  Hyunjun Ji,  Hanjie Jiang,  B. Kaduk,  S. Kaehler,  
 K. Khistyaev,  Jaehoon Kim,  P. Klunzinger,  Z. Koczor-Benda,  
 Joong Hoon Koh,  D. Kosenkov,  L. Koulias,  T. Kowalczyk,  C. M. Krauter,  
 K. Kue,  A. Kunitsa,  T. Kus,  A. Landau,  K. V. Lawler,  D. Lefrancois,  
 S. Lehtola,  Rain Li,  Yi-Pei Li,  Jiashu Liang,  M. Liebenthal,  
 Hung-Hsuan Lin,  You-Sheng Lin,  Fenglai Liu,  Kuan-Yu Liu,  
 M. Loipersberger,  A. Luenser,  A. Manjanath,  P. Manohar,  E. Mansoor,  
 S. F. Manzer,  Shan-Ping Mao,  A. V. Marenich,  T. Markovich,  S. Mason,  
 S. A. Maurer,  P. F. McLaughlin,  M. F. S. J. Menger,  J.-M. Mewes,  
 S. A. Mewes,  P. Morgante,  J. W. Mullinax,  T. S. Nguyen-Beck,  
 K. J. Oosterbaan,  G. Paran,  Alexander C. Paul,  Suranjan K. Paul,  
 F. Pavosevic,  Zheng Pei,  S. Prager,  E. I. Proynov,  E. Ramos,  B. Rana,  
 A. E. Rask,  A. Rettig,  R. M. Richard,  F. Rob,  E. Rossomme,  T. Scheele,  
 M. Scheurer,  M. Schneider,  N. Sergueev,  S. M. Sharada,  W. Skomorowski,  
 D. W. Small,  C. J. Stein,  Yu-Chuan Su,  E. J. Sundstrom,  Zhen Tao,  
 J. Thirman,  T. Tsuchimochi,  N. M. Tubman,  S. P. Veccham,  O. Vydrov,  
 J. Wenzel,  J. Witte,  A. Yamada,  Kun Yao,  S. Yeganeh,  S. R. Yost,  
 A. Zech,  Igor Ying Zhang,  Xing Zhang,  Yu Zhang,  D. Zuev,  
 A. Aspuru-Guzik,  A. T. Bell,  N. A. Besley,  K. B. Bravaya,  B. R. Brooks,  
 D. Casanova,  Jeng-Da Chai,  S. Coriani,  C. J. Cramer,  
 A. E. DePrince, III,  R. A. DiStasio Jr.,  A. Dreuw,  B. D. Dunietz,  
 T. R. Furlani,  W. A. Goddard III,  S. Grimme,  S. Hammes-Schiffer,  
 T. Head-Gordon,  W. J. Hehre,  Chao-Ping Hsu,  T.-C. Jagau,  Yousung Jung,  
 A. Klamt,  Jing Kong,  D. S. Lambrecht,  WanZhen Liang,  N. J. Mayhall,  
 C. W. McCurdy,  J. B. Neaton,  C. Ochsenfeld,  J. A. Parkhill,  R. Peverati,  
 V. A. Rassolov,  Yihan Shao,  L. V. Slipchenko,  T. Stauch,  R. P. Steele,  
 J. E. Subotnik,  A. J. W. Thom,  A. Tkatchenko,  D. G. Truhlar,  
 T. Van Voorhis,  T. A. Wesolowski,  K. B. Whaley,  H. L. Woodcock III,  
 P. M. Zimmerman,  S. Faraji,  P. M. W. Gill,  M. Head-Gordon,  
 J. M. Herbert,  A. I. Krylov

 Contributors to earlier versions of Q-Chem not listed above: 
 R. D. Adamson,  B. Austin,  R. Baer,  J. Baker,  G. J. O. Beran,  
 K. Brandhorst,  S. T. Brown,  E. F. C. Byrd,  A. K. Chakraborty,  
 G. K. L. Chan,  Chun-Min Chang,  Yunqing Chen,  C.-L. Cheng,  
 Siu Hung Chien,  D. M. Chipman,  D. L. Crittenden,  H. Dachsel,  
 R. J. Doerksen,  A. D. Dutoi,  R. G. Edgar,  J. Fosso-Tande,  
 L. Fusti-Molnar,  D. Ghosh,  A. Ghysels,  A. Golubeva-Zadorozhnaya,  
 J. Gonthier,  M. S. Gordon,  S. R. Gwaltney,  G. Hawkins,  J. E. Herr,  
 A. Heyden,  S. Hirata,  E. G. Hohenstein,  G. Kedziora,  F. J. Keil,  
 C. Kelley,  Jihan Kim,  R. A. King,  R. Z. Khaliullin,  P. P. Korambath,  
 W. Kurlancheek,  A. Laurent,  A. M. Lee,  M. S. Lee,  S. V. Levchenko,  
 Ching Yeh Lin,  D. Liotard,  E. Livshits,  R. C. Lochan,  I. Lotan,  
 L. A. Martinez-Martinez,  P. E. Maslen,  N. Nair,  D. P. O'Neill,  
 D. Neuhauser,  E. Neuscamman,  C. M. Oana,  R. Olivares-Amaya,  R. Olson,  
 T. M. Perrine,  B. Peters,  P. A. Pieniazek,  A. Prociuk,  Y. M. Rhee,  
 J. Ritchie,  M. A. Rohrdanz,  E. Rosta,  N. J. Russ,  H. F. Schaefer III,  
 M. W. Schmidt,  N. E. Schultz,  S. Sharma,  N. Shenvi,  C. D. Sherrill,  
 A. C. Simmonett,  A. Sodt,  T. Stein,  D. Stuck,  K. S. Thanthiriwatte,  
 V. Vanovschi,  L. Vogt,  Tao Wang,  A. Warshel,  M. A. Watson,  
 C. F. Williams,  Q. Wu,  X. Xu,  Jun Yang,  W. Zhang,  Yan Zhao

 Please cite Q-Chem as follows:
 Y. Shao et al., Mol. Phys. 113, 184-215 (2015)
 DOI: 10.1080/00268976.2014.952696

 Q-Chem 5.4.0 for Intel X86 EM64T Linux

 Parts of Q-Chem use Armadillo 9.800.1 (Horizon Scraper).
 http://arma.sourceforge.net/

 Q-Chem begins on Sun Jul 10 10:56:04 2022  

 Host: 
0

     Scratch files written to ./qchem1017745//
 May1621 |scratch|qcdevops|jenkins|workspace|build_RNUM    
 Processing $rem in /cm/shared/apps/spack/cpu/opt/spack/linux-centos8-zen2/gcc-10.2.0/qchem-5.4-akfmr7b3t57bfs6qan3padb2wnb2i7cl/config/preferences:
 Processing $rem in /home/theleonzhang/.qchemrc:
 Symmetry turned off for PCM/SM12/SMD calculation
 Core orbitals will be frozen

 Checking the input file for inconsistencies... 	...done.

--------------------------------------------------------------
User input:
--------------------------------------------------------------
$molecule
0 1
C	-0.344055	-0.485421	0.014755
C	0.087745	0.262479	1.114155
C	0.779745	1.460979	0.791455
H	-0.096655	-0.056921	2.150855
C	0.890045	1.652079	-0.597745
S	0.127145	0.330679	-1.472045
C	1.323645	2.402979	1.829355
H	1.110845	2.034379	2.851455
H	0.877945	3.415779	1.740955
H	2.423645	2.523379	1.740955
C	-0.344055	-1.926121	0.014755
H	0.719545	-1.925821	0.202455
H	-0.486355	-2.629921	0.821455
H	-0.179555	-2.445021	-0.917945
H	1.364745	2.474079	-1.146845
$end

$rem
JOBTYPE		SP
EXCHANGE	HF
CORRELATION	pRIMP2
BASIS		cc-pvtz
METHOD		rimp2
AUX_BASIS	rimp2-cc-pvtz
SOLVENT_METHOD	PCM
PURECART	11111
SYMMETRY	false
MEM_TOTAL	110000
SCF_CONVERGENCE = 6
THRESH=10
$end



$solvent
dielectric 4.90
$end
--------------------------------------------------------------
 ----------------------------------------------------------------
             Standard Nuclear Orientation (Angstroms)
    I     Atom           X                Y                Z
 ----------------------------------------------------------------
    1      C      -0.3440550000    -0.4854210000     0.0147550000
    2      C       0.0877450000     0.2624790000     1.1141550000
    3      C       0.7797450000     1.4609790000     0.7914550000
    4      H      -0.0966550000    -0.0569210000     2.1508550000
    5      C       0.8900450000     1.6520790000    -0.5977450000
    6      S       0.1271450000     0.3306790000    -1.4720450000
    7      C       1.3236450000     2.4029790000     1.8293550000
    8      H       1.1108450000     2.0343790000     2.8514550000
    9      H       0.8779450000     3.4157790000     1.7409550000
   10      H       2.4236450000     2.5233790000     1.7409550000
   11      C      -0.3440550000    -1.9261210000     0.0147550000
   12      H       0.7195450000    -1.9258210000     0.2024550000
   13      H      -0.4863550000    -2.6299210000     0.8214550000
   14      H      -0.1795550000    -2.4450210000    -0.9179450000
   15      H       1.3647450000     2.4740790000    -1.1468450000
 ----------------------------------------------------------------
 Nuclear Repulsion Energy =         346.49302162 hartrees
 There are       30 alpha and       30 beta electrons

 Q-Chem warning in module forms1/BasisType.C, line 2236:

 You are not using the predefined 5D/6D in this basis set.

 Requested basis set is cc-pVTZ
 There are 120 shells and 326 basis functions

 Total QAlloc Memory Limit 110000 MB
 Mega-Array Size       188 MB
 MEM_STATIC part       192 MB
 Discretize the solute cavity surface with Lebedev spheres
	Using 110 Lebedev grid points for each H atom
	Using 194 Lebedev grid points for other atoms
	Atomic van der Waals radii will be scaled by 1.20
 Remove points where switching function is < 1.0e-08
 Keep 1048 surface tesserae and discard 1190 interior tesserae
 Molecular Surface Area = 158.191 Angst**2

                       Distance Matrix (Angstroms)
             C (  1)   C (  2)   C (  3)   H (  4)   C (  5)   S (  6)
   C (  2)  1.398029
   C (  3)  2.377953  1.421056
   H (  4)  2.192656  1.100348  2.218122
   C (  5)  2.543043  2.346332  1.406614  3.383646
   S (  6)  1.760291  2.587399  2.612833  3.650442  1.758555
   C (  7)  3.796953  2.573072  1.503472  2.858622  2.577339  4.077411
   H (  8)  4.063618  2.684134  2.163796  2.514445  3.477339  4.750043
   H (  9)  4.437613  3.310679  2.175416  3.630084  2.929215  4.517180
   H ( 10)  4.437658  3.310736  2.175466  3.630135  2.929268  4.517213
   C ( 11)  1.440700  2.486986  3.652210  2.849217  3.834276  2.743310
   H ( 12)  1.800341  2.453370  3.438162  2.820502  3.670253  2.871703
   H ( 13)  2.295625  2.963316  4.282449  2.922242  4.716368  3.794954
   H ( 14)  2.176470  3.395797  4.370256  3.889399  4.246505  2.847034
   H ( 15)  3.609425  3.410869  2.263980  4.406413  1.096602  2.496312
             C (  7)   H (  8)   H (  9)   H ( 10)   C ( 11)   H ( 12)
   H (  8)  1.107176
   H (  9)  1.110057  1.787657
   H ( 10)  1.110095  1.787673  1.784815
   C ( 11)  4.981476  5.084207  5.745341  5.517063
   H ( 12)  4.663716  4.780534  5.561004  5.006628  1.080035
   H ( 13)  5.442614  5.331758  6.265563  5.989164  1.079976  1.527453
   H ( 14)  5.771514  5.994876  6.522042  6.207366  1.079929  1.527497
   H ( 15)  2.977333  4.030410  3.076225  3.076213  4.861180  4.647151
             H ( 13)   H ( 14)
   H ( 14)  1.775902
   H ( 15)  5.775084  5.160892
 
 Requested basis set is rimp2-cc-pVTZ
 There are 250 shells and 848 basis functions
 A cutoff of  1.0D-10 yielded   6247 shell pairs
 There are     45833 function pairs (     58949 Cartesian)
 Smallest overlap matrix eigenvalue = 1.20E-04

 Scale SEOQF with 1.000000e-01/1.000000e-01/1.000000e-01

 Standard Electronic Orientation quadrupole field applied
 Nucleus-field energy     =     0.0000000011 hartrees
 Guess from superposition of atomic densities
 Warning:  Energy on first SCF cycle will be non-variational
 SAD guess density has 60.000000 electrons

 -----------------------------------------------------------------------
  General SCF calculation program by
  Eric Jon Sundstrom, Paul Horn, Yuezhi Mao, Dmitri Zuev, Alec White,
  David Stuck, Shaama M.S., Shane Yost, Joonho Lee, David Small,
  Daniel Levine, Susi Lehtola, Hugh Burton, Evgeny Epifanovsky,
  Bang C. Huynh
 -----------------------------------------------------------------------
 Hartree-Fock
 A restricted SCF calculation will be
 performed using DIIS
 SCF converges when DIIS error is below 1.0e-06
 ---------------------------------------
  Cycle       Energy         DIIS error
 ---------------------------------------
    1    -632.1271885989      2.93e-02  
    2    -629.3266898288      1.95e-03  
    3    -629.3973326556      6.98e-04  
    4    -629.4050086610      3.56e-04  
    5    -629.4072273670      6.34e-05  
    6    -629.4073599113      2.64e-05  
    7    -629.4073926374      1.15e-05  
    8    -629.4074019335      5.34e-06  
    9    -629.4074035973      1.77e-06  
   10    -629.4074038171      6.32e-07  Convergence criterion met
 ---------------------------------------
 SCF time:   CPU 144.64s  wall 145.00s 

************** Final PCM Free Energy Summary **************
 G_electrostatic  =      -0.00544176 hartree =      -3.41475750 kcal/mol
 G_cavitation     =       0.00000000 hartree =       0.00000000 kcal/mol
 G_dispersion     =       0.00000000 hartree =       0.00000000 kcal/mol
 G_repulsion      =       0.00000000 hartree =       0.00000000 kcal/mol
 --------------------------------------------------
 Non-electrostatic Free Energy =       0.00000000 hartree =       0.00000000 kcal/mol
 Total                         =      -0.00544176 hartree =      -3.41475750 kcal/mol
 --------------------------------------------------
 SCF Energy (H0 + V/2)                       =    -629.40740382 
 Solute Internal Energy (H0)                 =    -629.40196205 
 Total Free Energy (H0 + V/2 + non-elec)     =    -629.40740382 hartree
                                             = -394959.10701277 kcal/mol
***********************************************************

 SCF   energy in the final basis set =     -629.4074038171
 Total energy in the final basis set =     -629.4074038171


 --------------------------------------------------------------
  Generalized many-body perturbation theory program
  by Joonho Lee, Fazle Rob, Xintian Feng, Evgeny Epifanovsky

 No regularization used 
 (reg. param. = 0.0000e+00)
  (P|Q)^-1/2 Time:  CPU 0.48 s  wall 0.49 s

 In RI-MP2 calculation: 
 # of frozen core orbitals: 11

 Components of the RIMP2 correlation energy:
        aaaa    correlation energy =        -0.1458383471 a.u.
        abab    correlation energy =        -0.8877997382 a.u.
        bbbb    correlation energy =        -0.1458383471 a.u.
        non-Brillouin singles      =        -0.0000000000 a.u.
        total same-spin energy     =        -0.2916766942 a.u.
        total opposite-spin energy =        -0.8877997382 a.u.

 Total  RIMP2   correlation energy =        -1.1794764324 a.u.
        RIMP2         total energy =      -630.5868802495 a.u.

 RI-MP2 Energy Time:  CPU 11.11 s  wall 11.15 s
 
 --------------------------------------------------------------
 
                    Orbital Energies (a.u.)
 --------------------------------------------------------------
 
 Alpha MOs
 -- Occupied --
-91.9789 -11.2811 -11.2533 -11.2480 -11.2269 -11.2246 -11.2204  -8.9788
 -6.6598  -6.6592  -6.6586  -1.1641  -1.0566  -0.9969  -0.9401  -0.8819
 -0.7447  -0.7208  -0.6483  -0.5869  -0.5775  -0.5665  -0.5548  -0.5458
 -0.5071  -0.4918  -0.4629  -0.4581  -0.3381  -0.2874
 -- Virtual --
  0.0973   0.1450   0.1544   0.1746   0.1850   0.1917   0.2068   0.2232
  0.2275   0.2419   0.2492   0.2591   0.2956   0.3276   0.3413   0.3533
  0.3799   0.3923   0.3970   0.4195   0.4445   0.4594   0.4637   0.4740
  0.4927   0.5004   0.5191   0.5320   0.5392   0.5595   0.5689   0.5863
  0.5976   0.6094   0.6140   0.6160   0.6286   0.6383   0.6399   0.6478
  0.6573   0.6695   0.6741   0.6987   0.7141   0.7463   0.7638   0.7830
  0.7890   0.8200   0.8353   0.8419   0.8623   0.8962   0.9016   0.9309
  0.9391   0.9742   1.0110   1.0302   1.0487   1.0526   1.0674   1.0761
  1.0827   1.1015   1.1198   1.1388   1.1568   1.1607   1.1745   1.2030
  1.2272   1.2546   1.2591   1.2630   1.2704   1.2955   1.3149   1.3359
  1.3522   1.3622   1.3922   1.4193   1.4296   1.4381   1.4572   1.4752
  1.4832   1.5031   1.5093   1.5310   1.5346   1.5451   1.5583   1.5762
  1.6114   1.6334   1.6421   1.6645   1.6853   1.6997   1.7240   1.7562
  1.7663   1.8023   1.8052   1.8276   1.8752   1.9146   1.9417   1.9747
  2.0087   2.0392   2.1008   2.1398   2.1824   2.1868   2.2229   2.2431
  2.2735   2.2829   2.3241   2.4078   2.4293   2.4631   2.5113   2.5431
  2.5661   2.5963   2.6139   2.6511   2.6725   2.6935   2.7343   2.7383
  2.7595   2.7616   2.7802   2.7920   2.8151   2.8396   2.8673   2.8965
  2.8991   2.9644   2.9689   2.9954   3.0294   3.0333   3.0594   3.0803
  3.0995   3.1136   3.1246   3.1412   3.1484   3.1564   3.1683   3.1832
  3.1886   3.2416   3.2537   3.2705   3.2880   3.2930   3.3146   3.3334
  3.3365   3.3543   3.3817   3.3904   3.4008   3.4142   3.4276   3.4307
  3.4473   3.4766   3.4815   3.4966   3.5033   3.5264   3.5492   3.5653
  3.5723   3.5942   3.6103   3.6199   3.6250   3.6403   3.6470   3.6810
  3.7048   3.7056   3.7303   3.7434   3.7521   3.7582   3.7947   3.8051
  3.8112   3.8445   3.8625   3.8680   3.9110   3.9385   3.9506   3.9547
  3.9761   4.0060   4.0115   4.0411   4.0546   4.0738   4.0967   4.1252
  4.1355   4.1560   4.1609   4.2067   4.2109   4.2402   4.2536   4.2604
  4.2882   4.3067   4.3253   4.3408   4.3567   4.3701   4.3949   4.4012
  4.4067   4.4400   4.4644   4.4760   4.4806   4.5043   4.5511   4.5796
  4.5983   4.6147   4.6476   4.6627   4.7065   4.7225   4.7465   4.7851
  4.8222   4.8277   4.8603   4.8797   4.9010   4.9372   5.0796   5.1078
  5.1094   5.1326   5.1625   5.1826   5.2085   5.2634   5.2941   5.3344
  5.3684   5.4026   5.4180   5.4393   5.4672   5.5241   5.5468   5.5611
  5.6000   5.6168   5.6265   5.6777   5.7040   5.8175   5.8352   5.8516
  5.9135   5.9974   6.0239   6.1489   6.2283   6.2417   6.2762   6.3691
  6.4287   6.5027   9.2053  11.4570  12.8678  13.7783  14.1696  14.3948
 --------------------------------------------------------------
 
          Ground-State Mulliken Net Atomic Charges

     Atom                 Charge (a.u.)
  ----------------------------------------
      1 C                     0.036753
      2 C                    -0.290063
      3 C                     0.051688
      4 H                     0.173788
      5 C                    -0.275512
      6 S                     0.006611
      7 C                    -0.270888
      8 H                     0.101687
      9 H                     0.107696
     10 H                     0.106161
     11 C                    -0.378375
     12 H                     0.150548
     13 H                     0.153582
     14 H                     0.132985
     15 H                     0.193340
  ----------------------------------------
  Sum of atomic charges =     0.000000

 -----------------------------------------------------------------
                    Cartesian Multipole Moments
 -----------------------------------------------------------------
    Charge (ESU x 10^10)
                -0.0000
    Dipole Moment (Debye)
         X       1.3404      Y      -0.5972      Z       1.5453
       Tot       2.1310
    Quadrupole Moments (Debye-Ang)
        XX     -52.8340     XY       2.5855     YY     -44.3571
        XZ       0.0718     YZ      -0.2171     ZZ     -48.4263
    Octopole Moments (Debye-Ang^2)
       XXX     -53.1287    XXY     -20.7453    XYY      -8.3585
       YYY     -72.3447    XXZ      -2.4533    XYZ      -0.7507
       YYZ      -2.4958    XZZ     -15.6133    YZZ     -21.9274
       ZZZ       0.7010
    Hexadecapole Moments (Debye-Ang^3)
      XXXX    -218.1188   XXXY    -135.7975   XXYY    -152.0099
      XYYY    -125.9693   YYYY    -676.9167   XXXZ     -46.1970
      XXYZ     -29.2087   XYYZ     -21.2673   YYYZ     -91.0395
      XXZZ    -120.7093   XYZZ     -37.2061   YYZZ    -188.7404
      XZZZ     -51.0803   YZZZ     -87.2477   ZZZZ    -483.1713
 -----------------------------------------------------------------
 Total job time:  157.37s(wall), 156.10s(cpu) 
 Sun Jul 10 10:58:41 2022

        *************************************************************
        *                                                           *
        *  Thank you very much for using Q-Chem.  Have a nice day.  *
        *                                                           *
        *************************************************************


remove work dirs ./qchem1017745.0 -- ./qchem1017745.-1
rm -rf ./qchem1017745
