You are running Q-Chem version: 5.4.0

#
# job setting
#
local host:  exp-4-43
current dir: /expanse/lustre/scratch/theleonzhang/temp_project/Hydrogenated_Impropers_Test
input file:  Methylthiophene_Phi_60_Theta_60_Methylthiophene_Hydrogenated_Improper_Alternate.qcin
output file: 
nprocs     : 0
nthreads   : 1
#
# qchem installation setting
#
QC:          /cm/shared/apps/spack/cpu/opt/spack/linux-centos8-zen2/gcc-10.2.0/qchem-5.4-akfmr7b3t57bfs6qan3padb2wnb2i7cl
QCAUX:       /cm/shared/apps/spack/cpu/opt/spack/linux-centos8-zen2/gcc-10.2.0/qchem-5.4-akfmr7b3t57bfs6qan3padb2wnb2i7cl/qcaux
QCPROG:      /cm/shared/apps/spack/cpu/opt/spack/linux-centos8-zen2/gcc-10.2.0/qchem-5.4-akfmr7b3t57bfs6qan3padb2wnb2i7cl/exe/qcprog.exe_s
QCPROG_S:    /cm/shared/apps/spack/cpu/opt/spack/linux-centos8-zen2/gcc-10.2.0/qchem-5.4-akfmr7b3t57bfs6qan3padb2wnb2i7cl/exe/qcprog.exe_s
PARALLEL:    -DSERIAL
QCMPI:       mpich
#
# qchem directory setting
#
qcrun:       qchem2261177
QCSCRATCH:   .
QCLOCALSCR:  
QCTMPDIR:    .
QCFILEPREF:  ./qchem2261177
QCSAVEDIR:   
workdirs:    ./qchem2261177
workdir0:    ./qchem2261177
partmpdirs =  
#
# parallel setting
#
QCRSH:           ssh
QCMPI:           mpich
QCMPIRUN:        /cm/shared/apps/spack/cpu/opt/spack/linux-centos8-zen2/gcc-10.2.0/qchem-5.4-akfmr7b3t57bfs6qan3padb2wnb2i7cl/bin/mpi/mpirun_qchem
QCMACHINEFILE:   ./qchem2261177/hostfile

#
# env setting
#
exported envs:   QC QCAUX QCSCRATCH QCRUNNAME QCFILEPREF QCPROG QCPROG_S GUIFILE

Running Job 1 of 1 Methylthiophene_Phi_60_Theta_60_Methylthiophene_Hydrogenated_Improper_Alternate.qcin
qchem Methylthiophene_Phi_60_Theta_60_Methylthiophene_Hydrogenated_Improper_Alternate.qcin_2261177.0 ./qchem2261177/ 0
/cm/shared/apps/spack/cpu/opt/spack/linux-centos8-zen2/gcc-10.2.0/qchem-5.4-akfmr7b3t57bfs6qan3padb2wnb2i7cl/exe/qcprog.exe_s Methylthiophene_Phi_60_Theta_60_Methylthiophene_Hydrogenated_Improper_Alternate.qcin_2261177.0 ./qchem2261177/
                  Welcome to Q-Chem
     A Quantum Leap Into The Future Of Chemistry


 Q-Chem 5.4, Q-Chem, Inc., Pleasanton, CA (2021)

 License issued to: University of California, San Diego (site)

 E. Epifanovsky,  A. T. B. Gilbert,  Xintian Feng,  Joonho Lee,  Yuezhi Mao,  
 N. Mardirossian,  P. Pokhilko,  A. White,  M. Wormit,  M. P. Coons,  
 A. L. Dempwolff,  Zhengting Gan,  D. Hait,  P. R. Horn,  L. D. Jacobson,  
 I. Kaliman,  J. Kussmann,  A. W. Lange,  Ka Un Lao,  D. S. Levine,  Jie Liu,  
 S. C. McKenzie,  A. F. Morrison,  K. Nanda,  F. Plasser,  D. R. Rehn,  
 M. L. Vidal,  Zhi-Qiang You,  Ying Zhu,  B. Alam,  B. Albrecht,  
 A. Aldossary,  E. Alguire,  J. H. Andersen,  D. Barton,  K. Begam,  A. Behn,  
 Y. A. Bernard,  E. J. Berquist,  H. Burton,  A. Carreras,  K. Carter-Fenk,  
 R. Chakraborty,  A. D. Chien,  K. D. Closser,  V. Cofer-Shabica,  
 S. Dasgupta,  Jia Deng,  M. de Wergifosse,  M. Diedenhofen,  Hainam Do,  
 S. Ehlert,  Po-Tung Fang,  S. Fatehi,  Qingguo Feng,  J. Gayvert,  
 Qinghui Ge,  G. Gidofalvi,  M. Goldey,  J. Gomes,  C. Gonzalez-Espinoza,  
 S. Gulania,  A. Gunina,  M. W. D. Hanson-Heine,  P. H. P. Harbach,  
 A. W. Hauser,  M. F. Herbst,  M. Hernandez Vera,  M. Hodecker,  
 Z. C. Holden,  S. Houck,  Xunkun Huang,  Kerwin Hui,  B. C. Huynh,  
 M. Ivanov,  Hyunjun Ji,  Hanjie Jiang,  B. Kaduk,  S. Kaehler,  
 K. Khistyaev,  Jaehoon Kim,  P. Klunzinger,  Z. Koczor-Benda,  
 Joong Hoon Koh,  D. Kosenkov,  L. Koulias,  T. Kowalczyk,  C. M. Krauter,  
 K. Kue,  A. Kunitsa,  T. Kus,  A. Landau,  K. V. Lawler,  D. Lefrancois,  
 S. Lehtola,  Rain Li,  Yi-Pei Li,  Jiashu Liang,  M. Liebenthal,  
 Hung-Hsuan Lin,  You-Sheng Lin,  Fenglai Liu,  Kuan-Yu Liu,  
 M. Loipersberger,  A. Luenser,  A. Manjanath,  P. Manohar,  E. Mansoor,  
 S. F. Manzer,  Shan-Ping Mao,  A. V. Marenich,  T. Markovich,  S. Mason,  
 S. A. Maurer,  P. F. McLaughlin,  M. F. S. J. Menger,  J.-M. Mewes,  
 S. A. Mewes,  P. Morgante,  J. W. Mullinax,  T. S. Nguyen-Beck,  
 K. J. Oosterbaan,  G. Paran,  Alexander C. Paul,  Suranjan K. Paul,  
 F. Pavosevic,  Zheng Pei,  S. Prager,  E. I. Proynov,  E. Ramos,  B. Rana,  
 A. E. Rask,  A. Rettig,  R. M. Richard,  F. Rob,  E. Rossomme,  T. Scheele,  
 M. Scheurer,  M. Schneider,  N. Sergueev,  S. M. Sharada,  W. Skomorowski,  
 D. W. Small,  C. J. Stein,  Yu-Chuan Su,  E. J. Sundstrom,  Zhen Tao,  
 J. Thirman,  T. Tsuchimochi,  N. M. Tubman,  S. P. Veccham,  O. Vydrov,  
 J. Wenzel,  J. Witte,  A. Yamada,  Kun Yao,  S. Yeganeh,  S. R. Yost,  
 A. Zech,  Igor Ying Zhang,  Xing Zhang,  Yu Zhang,  D. Zuev,  
 A. Aspuru-Guzik,  A. T. Bell,  N. A. Besley,  K. B. Bravaya,  B. R. Brooks,  
 D. Casanova,  Jeng-Da Chai,  S. Coriani,  C. J. Cramer,  
 A. E. DePrince, III,  R. A. DiStasio Jr.,  A. Dreuw,  B. D. Dunietz,  
 T. R. Furlani,  W. A. Goddard III,  S. Grimme,  S. Hammes-Schiffer,  
 T. Head-Gordon,  W. J. Hehre,  Chao-Ping Hsu,  T.-C. Jagau,  Yousung Jung,  
 A. Klamt,  Jing Kong,  D. S. Lambrecht,  WanZhen Liang,  N. J. Mayhall,  
 C. W. McCurdy,  J. B. Neaton,  C. Ochsenfeld,  J. A. Parkhill,  R. Peverati,  
 V. A. Rassolov,  Yihan Shao,  L. V. Slipchenko,  T. Stauch,  R. P. Steele,  
 J. E. Subotnik,  A. J. W. Thom,  A. Tkatchenko,  D. G. Truhlar,  
 T. Van Voorhis,  T. A. Wesolowski,  K. B. Whaley,  H. L. Woodcock III,  
 P. M. Zimmerman,  S. Faraji,  P. M. W. Gill,  M. Head-Gordon,  
 J. M. Herbert,  A. I. Krylov

 Contributors to earlier versions of Q-Chem not listed above: 
 R. D. Adamson,  B. Austin,  R. Baer,  J. Baker,  G. J. O. Beran,  
 K. Brandhorst,  S. T. Brown,  E. F. C. Byrd,  A. K. Chakraborty,  
 G. K. L. Chan,  Chun-Min Chang,  Yunqing Chen,  C.-L. Cheng,  
 Siu Hung Chien,  D. M. Chipman,  D. L. Crittenden,  H. Dachsel,  
 R. J. Doerksen,  A. D. Dutoi,  R. G. Edgar,  J. Fosso-Tande,  
 L. Fusti-Molnar,  D. Ghosh,  A. Ghysels,  A. Golubeva-Zadorozhnaya,  
 J. Gonthier,  M. S. Gordon,  S. R. Gwaltney,  G. Hawkins,  J. E. Herr,  
 A. Heyden,  S. Hirata,  E. G. Hohenstein,  G. Kedziora,  F. J. Keil,  
 C. Kelley,  Jihan Kim,  R. A. King,  R. Z. Khaliullin,  P. P. Korambath,  
 W. Kurlancheek,  A. Laurent,  A. M. Lee,  M. S. Lee,  S. V. Levchenko,  
 Ching Yeh Lin,  D. Liotard,  E. Livshits,  R. C. Lochan,  I. Lotan,  
 L. A. Martinez-Martinez,  P. E. Maslen,  N. Nair,  D. P. O'Neill,  
 D. Neuhauser,  E. Neuscamman,  C. M. Oana,  R. Olivares-Amaya,  R. Olson,  
 T. M. Perrine,  B. Peters,  P. A. Pieniazek,  A. Prociuk,  Y. M. Rhee,  
 J. Ritchie,  M. A. Rohrdanz,  E. Rosta,  N. J. Russ,  H. F. Schaefer III,  
 M. W. Schmidt,  N. E. Schultz,  S. Sharma,  N. Shenvi,  C. D. Sherrill,  
 A. C. Simmonett,  A. Sodt,  T. Stein,  D. Stuck,  K. S. Thanthiriwatte,  
 V. Vanovschi,  L. Vogt,  Tao Wang,  A. Warshel,  M. A. Watson,  
 C. F. Williams,  Q. Wu,  X. Xu,  Jun Yang,  W. Zhang,  Yan Zhao

 Please cite Q-Chem as follows:
 Y. Shao et al., Mol. Phys. 113, 184-215 (2015)
 DOI: 10.1080/00268976.2014.952696

 Q-Chem 5.4.0 for Intel X86 EM64T Linux

 Parts of Q-Chem use Armadillo 9.800.1 (Horizon Scraper).
 http://arma.sourceforge.net/

 Q-Chem begins on Sun Jul 10 09:54:21 2022  

 Host: 
0

     Scratch files written to ./qchem2261177//
 May1621 |scratch|qcdevops|jenkins|workspace|build_RNUM    
 Processing $rem in /cm/shared/apps/spack/cpu/opt/spack/linux-centos8-zen2/gcc-10.2.0/qchem-5.4-akfmr7b3t57bfs6qan3padb2wnb2i7cl/config/preferences:
 Processing $rem in /home/theleonzhang/.qchemrc:
 Symmetry turned off for PCM/SM12/SMD calculation
 Core orbitals will be frozen

 Checking the input file for inconsistencies... 	...done.

--------------------------------------------------------------
User input:
--------------------------------------------------------------
$molecule
0 1
C	-0.589398	-0.237127	0.010542
C	0.158502	0.194673	1.109942
C	1.357002	0.886573	0.787242
H	-0.160898	0.010273	2.146642
C	1.548102	0.996873	-0.601958
S	0.226802	0.234073	-1.476258
C	2.299102	1.430473	1.825142
H	1.930402	1.217573	2.847242
H	2.419502	2.530373	1.736742
H	3.311902	0.984673	1.736742
C	-0.589398	-1.677827	0.010542
H	-0.049498	-1.678027	0.945942
H	0.120102	-2.381627	-0.398958
H	-1.409598	-2.196727	0.484142
H	2.370202	1.471473	-1.151058
$end

$rem
JOBTYPE		SP
EXCHANGE	HF
CORRELATION	pRIMP2
BASIS		cc-pvtz
METHOD		rimp2
AUX_BASIS	rimp2-cc-pvtz
SOLVENT_METHOD	PCM
PURECART	11111
SYMMETRY	false
MEM_TOTAL	110000
SCF_CONVERGENCE = 6
THRESH=10
$end



$solvent
dielectric 4.90
$end
--------------------------------------------------------------
 ----------------------------------------------------------------
             Standard Nuclear Orientation (Angstroms)
    I     Atom           X                Y                Z
 ----------------------------------------------------------------
    1      C      -0.5893980000    -0.2371270000     0.0105420000
    2      C       0.1585020000     0.1946730000     1.1099420000
    3      C       1.3570020000     0.8865730000     0.7872420000
    4      H      -0.1608980000     0.0102730000     2.1466420000
    5      C       1.5481020000     0.9968730000    -0.6019580000
    6      S       0.2268020000     0.2340730000    -1.4762580000
    7      C       2.2991020000     1.4304730000     1.8251420000
    8      H       1.9304020000     1.2175730000     2.8472420000
    9      H       2.4195020000     2.5303730000     1.7367420000
   10      H       3.3119020000     0.9846730000     1.7367420000
   11      C      -0.5893980000    -1.6778270000     0.0105420000
   12      H      -0.0494980000    -1.6780270000     0.9459420000
   13      H       0.1201020000    -2.3816270000    -0.3989580000
   14      H      -1.4095980000    -2.1967270000     0.4841420000
   15      H       2.3702020000     1.4714730000    -1.1510580000
 ----------------------------------------------------------------
 Nuclear Repulsion Energy =         351.48247626 hartrees
 There are       30 alpha and       30 beta electrons

 Q-Chem warning in module forms1/BasisType.C, line 2236:

 You are not using the predefined 5D/6D in this basis set.

 Requested basis set is cc-pVTZ
 There are 120 shells and 326 basis functions

 Total QAlloc Memory Limit 110000 MB
 Mega-Array Size       188 MB
 MEM_STATIC part       192 MB
 Discretize the solute cavity surface with Lebedev spheres
	Using 110 Lebedev grid points for each H atom
	Using 194 Lebedev grid points for other atoms
	Atomic van der Waals radii will be scaled by 1.20
 Remove points where switching function is < 1.0e-08
 Keep 1033 surface tesserae and discard 1205 interior tesserae
 Molecular Surface Area = 155.554 Angst**2

                       Distance Matrix (Angstroms)
             C (  1)   C (  2)   C (  3)   H (  4)   C (  5)   S (  6)
   C (  2)  1.398029
   C (  3)  2.377906  1.421008
   H (  4)  2.192656  1.100348  2.218083
   C (  5)  2.542994  2.346298  1.406614  3.383617
   S (  6)  1.760337  2.587402  2.612765  3.650452  1.758436
   C (  7)  3.796985  2.573107  1.503535  2.858659  2.577368  4.077382
   H (  8)  4.063547  2.684058  2.163781  2.514349  3.477333  4.749966
   H (  9)  4.437601  3.310664  2.175439  3.630067  2.929245  4.517111
   H ( 10)  4.437646  3.310726  2.175502  3.630126  2.929276  4.517146
   C ( 11)  1.440700  2.296582  3.311779  2.756124  3.478230  2.555801
   H ( 12)  1.800738  1.891340  2.929266  2.074716  3.478996  3.098309
   H ( 13)  2.295640  2.985896  3.690274  3.504315  3.673507  2.830874
   H ( 14)  2.176478  2.927346  4.153635  3.032162  4.486277  3.525587
   H ( 15)  3.609413  3.410859  2.263998  4.406404  1.096633  2.496213
             C (  7)   H (  8)   H (  9)   H ( 10)   C ( 11)   H ( 12)
   H (  8)  1.107228
   H (  9)  1.109996  1.787700
   H ( 10)  1.110097  1.787735  1.784815
   C ( 11)  4.614947  4.772798  5.453640  5.028799
   H ( 12)  3.993956  3.989918  4.942869  4.360544  1.080030
   H ( 13)  4.922070  5.173900  5.828911  5.106934  1.080007  1.527276
   H ( 14)  5.358108  5.328910  6.210997  5.829483  1.079945  1.527148
   H ( 15)  2.977331  4.030421  3.076213  3.076225  4.475113  4.491292
             H ( 13)   H ( 14)
   H ( 14)  1.775961
   H ( 15)  4.524929  5.515112
 
 Requested basis set is rimp2-cc-pVTZ
 There are 250 shells and 848 basis functions
 A cutoff of  1.0D-10 yielded   6398 shell pairs
 There are     47082 function pairs (     60523 Cartesian)
 Smallest overlap matrix eigenvalue = 1.32E-04

 Scale SEOQF with 1.000000e-01/1.000000e-01/1.000000e-01

 Standard Electronic Orientation quadrupole field applied
 Nucleus-field energy     =    -0.0000000017 hartrees
 Guess from superposition of atomic densities
 Warning:  Energy on first SCF cycle will be non-variational
 SAD guess density has 60.000000 electrons

 -----------------------------------------------------------------------
  General SCF calculation program by
  Eric Jon Sundstrom, Paul Horn, Yuezhi Mao, Dmitri Zuev, Alec White,
  David Stuck, Shaama M.S., Shane Yost, Joonho Lee, David Small,
  Daniel Levine, Susi Lehtola, Hugh Burton, Evgeny Epifanovsky,
  Bang C. Huynh
 -----------------------------------------------------------------------
 Hartree-Fock
 A restricted SCF calculation will be
 performed using DIIS
 SCF converges when DIIS error is below 1.0e-06
 ---------------------------------------
  Cycle       Energy         DIIS error
 ---------------------------------------
    1    -632.2536266137      2.97e-02  
    2    -629.2511496434      1.93e-03  
    3    -629.3224333181      6.70e-04  
    4    -629.3301426599      3.59e-04  
    5    -629.3324450270      7.20e-05  
    6    -629.3326453099      3.83e-05  
    7    -629.3327176327      1.69e-05  
    8    -629.3327481769      9.97e-06  
    9    -629.3327557257      3.70e-06  
   10    -629.3327568881      1.55e-06  
   11    -629.3327570722      6.79e-07  Convergence criterion met
 ---------------------------------------
 SCF time:   CPU 166.79s  wall 168.00s 

************** Final PCM Free Energy Summary **************
 G_electrostatic  =      -0.00657412 hartree =      -4.12532251 kcal/mol
 G_cavitation     =       0.00000000 hartree =       0.00000000 kcal/mol
 G_dispersion     =       0.00000000 hartree =       0.00000000 kcal/mol
 G_repulsion      =       0.00000000 hartree =       0.00000000 kcal/mol
 --------------------------------------------------
 Non-electrostatic Free Energy =       0.00000000 hartree =       0.00000000 kcal/mol
 Total                         =      -0.00657412 hartree =      -4.12532251 kcal/mol
 --------------------------------------------------
 SCF Energy (H0 + V/2)                       =    -629.33275707 
 Solute Internal Energy (H0)                 =    -629.32618295 
 Total Free Energy (H0 + V/2 + non-elec)     =    -629.33275707 hartree
                                             = -394912.26547333 kcal/mol
***********************************************************

 SCF   energy in the final basis set =     -629.3327570722
 Total energy in the final basis set =     -629.3327570722


 --------------------------------------------------------------
  Generalized many-body perturbation theory program
  by Joonho Lee, Fazle Rob, Xintian Feng, Evgeny Epifanovsky

 No regularization used 
 (reg. param. = 0.0000e+00)
  (P|Q)^-1/2 Time:  CPU 0.48 s  wall 0.49 s

 In RI-MP2 calculation: 
 # of frozen core orbitals: 11

 Components of the RIMP2 correlation energy:
        aaaa    correlation energy =        -0.1486067419 a.u.
        abab    correlation energy =        -0.8970984503 a.u.
        bbbb    correlation energy =        -0.1486067419 a.u.
        non-Brillouin singles      =        -0.0000000000 a.u.
        total same-spin energy     =        -0.2972134838 a.u.
        total opposite-spin energy =        -0.8970984503 a.u.

 Total  RIMP2   correlation energy =        -1.1943119341 a.u.
        RIMP2         total energy =      -630.5270690063 a.u.

 RI-MP2 Energy Time:  CPU 11.28 s  wall 11.31 s
 
 --------------------------------------------------------------
 
                    Orbital Energies (a.u.)
 --------------------------------------------------------------
 
 Alpha MOs
 -- Occupied --
-91.9769 -11.2820 -11.2527 -11.2488 -11.2434 -11.2294 -11.2038  -8.9773
 -6.6581  -6.6572  -6.6570  -1.1769  -1.0572  -1.0029  -0.9324  -0.8820
 -0.7486  -0.7356  -0.6437  -0.5905  -0.5825  -0.5728  -0.5525  -0.5447
 -0.5194  -0.4741  -0.4491  -0.4397  -0.3275  -0.2953
 -- Virtual --
  0.0603   0.1402   0.1626   0.1761   0.1809   0.1927   0.2014   0.2215
  0.2266   0.2416   0.2514   0.2600   0.2799   0.2965   0.3403   0.3562
  0.3674   0.3927   0.4012   0.4109   0.4247   0.4469   0.4591   0.4726
  0.4823   0.5007   0.5120   0.5316   0.5414   0.5437   0.5743   0.5779
  0.5842   0.6096   0.6170   0.6210   0.6221   0.6376   0.6437   0.6509
  0.6577   0.6661   0.6885   0.7159   0.7337   0.7369   0.7651   0.7895
  0.7996   0.8160   0.8326   0.8359   0.8651   0.8806   0.8982   0.9370
  0.9500   0.9599   1.0159   1.0318   1.0447   1.0596   1.0722   1.0766
  1.1021   1.1176   1.1451   1.1524   1.1784   1.1846   1.2060   1.2147
  1.2362   1.2449   1.2530   1.2632   1.2746   1.2805   1.3120   1.3407
  1.3715   1.3780   1.3884   1.4105   1.4266   1.4581   1.4621   1.4658
  1.4849   1.4964   1.5242   1.5289   1.5485   1.5632   1.5746   1.5900
  1.6177   1.6302   1.6489   1.6624   1.6696   1.6935   1.7205   1.7240
  1.7495   1.7910   1.8009   1.8406   1.8618   1.9230   1.9435   1.9713
  1.9794   2.0470   2.0634   2.1187   2.1664   2.1920   2.2072   2.2259
  2.2600   2.2672   2.3526   2.4252   2.4278   2.4584   2.4974   2.5317
  2.5644   2.6213   2.6304   2.6486   2.6851   2.6989   2.7252   2.7515
  2.7574   2.7735   2.7771   2.8131   2.8431   2.8452   2.8878   2.8946
  2.9129   2.9351   2.9703   2.9967   3.0101   3.0212   3.0345   3.0734
  3.0966   3.1109   3.1222   3.1474   3.1583   3.1630   3.1882   3.1997
  3.2136   3.2159   3.2394   3.2494   3.2826   3.3050   3.3096   3.3318
  3.3452   3.3564   3.3696   3.3914   3.4009   3.4063   3.4155   3.4516
  3.4597   3.4749   3.4936   3.5044   3.5291   3.5379   3.5537   3.5606
  3.5841   3.5951   3.6201   3.6374   3.6583   3.6664   3.6787   3.6966
  3.7140   3.7408   3.7444   3.7540   3.7804   3.7986   3.8121   3.8232
  3.8430   3.8590   3.8809   3.9045   3.9396   3.9605   3.9699   3.9802
  4.0017   4.0092   4.0282   4.0462   4.0626   4.0774   4.1264   4.1429
  4.1491   4.1641   4.1798   4.2029   4.2170   4.2268   4.2635   4.2743
  4.2987   4.3096   4.3417   4.3461   4.3787   4.3895   4.4010   4.4054
  4.4328   4.4460   4.4599   4.4898   4.5204   4.5380   4.5836   4.5851
  4.6037   4.6581   4.6722   4.6878   4.7117   4.7489   4.7674   4.8056
  4.8506   4.8633   4.9077   4.9210   4.9561   4.9787   5.0528   5.0841
  5.1184   5.1335   5.1679   5.2009   5.2444   5.2737   5.2985   5.3036
  5.3662   5.4079   5.4260   5.4372   5.4684   5.4904   5.5506   5.5531
  5.5930   5.6187   5.6323   5.6944   5.7033   5.8018   5.8527   5.8831
  5.9283   5.9555   6.0085   6.0864   6.2111   6.2307   6.2517   6.3455
  6.4256   6.4766   9.3357  12.0035  12.8034  13.7731  14.1846  14.2736
 --------------------------------------------------------------
 
          Ground-State Mulliken Net Atomic Charges

     Atom                 Charge (a.u.)
  ----------------------------------------
      1 C                    -0.115407
      2 C                    -0.102704
      3 C                    -0.034653
      4 H                     0.185159
      5 C                    -0.186627
      6 S                     0.021753
      7 C                    -0.267593
      8 H                     0.101880
      9 H                     0.106941
     10 H                     0.103558
     11 C                    -0.375121
     12 H                     0.120240
     13 H                     0.143762
     14 H                     0.100526
     15 H                     0.198286
  ----------------------------------------
  Sum of atomic charges =     0.000000

 -----------------------------------------------------------------
                    Cartesian Multipole Moments
 -----------------------------------------------------------------
    Charge (ESU x 10^10)
                -0.0000
    Dipole Moment (Debye)
         X       2.7847      Y       0.1616      Z       2.1692
       Tot       3.5336
    Quadrupole Moments (Debye-Ang)
        XX     -48.4641     XY       3.4052     YY     -50.3869
        XZ      -0.8378     YZ      -0.7382     ZZ     -47.6563
    Octopole Moments (Debye-Ang^2)
       XXX     -77.3350    XXY      -2.7149    XYY     -23.2857
       YYY     -34.1935    XXZ      -5.1661    XYZ      -0.8045
       YYZ      -2.1204    XZZ     -26.7528    YZZ      -8.9162
       ZZZ       2.1628
    Hexadecapole Moments (Debye-Ang^3)
      XXXX    -485.0152   XXXY    -136.5769   XXYY    -140.8767
      XYYY    -153.4304   YYYY    -382.1161   XXXZ     -89.2622
      XXYZ     -21.8658   XYYZ     -32.7482   YYYZ     -46.5021
      XXZZ    -157.8263   XYZZ     -42.6424   YYZZ    -147.9360
      XZZZ     -86.1713   YZZZ     -45.9165   ZZZZ    -477.3215
 -----------------------------------------------------------------
 Total job time:  180.21s(wall), 178.42s(cpu) 
 Sun Jul 10 09:57:21 2022

        *************************************************************
        *                                                           *
        *  Thank you very much for using Q-Chem.  Have a nice day.  *
        *                                                           *
        *************************************************************


remove work dirs ./qchem2261177.0 -- ./qchem2261177.-1
rm -rf ./qchem2261177
