You are running Q-Chem version: 5.4.0

#
# job setting
#
local host:  exp-2-28
current dir: /expanse/lustre/scratch/theleonzhang/temp_project/Hydrogenated_Impropers_Test
input file:  Methylthiophene_Phi_50_Theta_290_Methylthiophene_Hydrogenated_Improper.qcin
output file: 
nprocs     : 0
nthreads   : 1
#
# qchem installation setting
#
QC:          /cm/shared/apps/spack/cpu/opt/spack/linux-centos8-zen2/gcc-10.2.0/qchem-5.4-akfmr7b3t57bfs6qan3padb2wnb2i7cl
QCAUX:       /cm/shared/apps/spack/cpu/opt/spack/linux-centos8-zen2/gcc-10.2.0/qchem-5.4-akfmr7b3t57bfs6qan3padb2wnb2i7cl/qcaux
QCPROG:      /cm/shared/apps/spack/cpu/opt/spack/linux-centos8-zen2/gcc-10.2.0/qchem-5.4-akfmr7b3t57bfs6qan3padb2wnb2i7cl/exe/qcprog.exe_s
QCPROG_S:    /cm/shared/apps/spack/cpu/opt/spack/linux-centos8-zen2/gcc-10.2.0/qchem-5.4-akfmr7b3t57bfs6qan3padb2wnb2i7cl/exe/qcprog.exe_s
PARALLEL:    -DSERIAL
QCMPI:       mpich
#
# qchem directory setting
#
qcrun:       qchem1911140
QCSCRATCH:   .
QCLOCALSCR:  
QCTMPDIR:    .
QCFILEPREF:  ./qchem1911140
QCSAVEDIR:   
workdirs:    ./qchem1911140
workdir0:    ./qchem1911140
partmpdirs =  
#
# parallel setting
#
QCRSH:           ssh
QCMPI:           mpich
QCMPIRUN:        /cm/shared/apps/spack/cpu/opt/spack/linux-centos8-zen2/gcc-10.2.0/qchem-5.4-akfmr7b3t57bfs6qan3padb2wnb2i7cl/bin/mpi/mpirun_qchem
QCMACHINEFILE:   ./qchem1911140/hostfile

#
# env setting
#
exported envs:   QC QCAUX QCSCRATCH QCRUNNAME QCFILEPREF QCPROG QCPROG_S GUIFILE

Running Job 1 of 1 Methylthiophene_Phi_50_Theta_290_Methylthiophene_Hydrogenated_Improper.qcin
qchem Methylthiophene_Phi_50_Theta_290_Methylthiophene_Hydrogenated_Improper.qcin_1911140.0 ./qchem1911140/ 0
/cm/shared/apps/spack/cpu/opt/spack/linux-centos8-zen2/gcc-10.2.0/qchem-5.4-akfmr7b3t57bfs6qan3padb2wnb2i7cl/exe/qcprog.exe_s Methylthiophene_Phi_50_Theta_290_Methylthiophene_Hydrogenated_Improper.qcin_1911140.0 ./qchem1911140/
                  Welcome to Q-Chem
     A Quantum Leap Into The Future Of Chemistry


 Q-Chem 5.4, Q-Chem, Inc., Pleasanton, CA (2021)

 License issued to: University of California, San Diego (site)

 E. Epifanovsky,  A. T. B. Gilbert,  Xintian Feng,  Joonho Lee,  Yuezhi Mao,  
 N. Mardirossian,  P. Pokhilko,  A. White,  M. Wormit,  M. P. Coons,  
 A. L. Dempwolff,  Zhengting Gan,  D. Hait,  P. R. Horn,  L. D. Jacobson,  
 I. Kaliman,  J. Kussmann,  A. W. Lange,  Ka Un Lao,  D. S. Levine,  Jie Liu,  
 S. C. McKenzie,  A. F. Morrison,  K. Nanda,  F. Plasser,  D. R. Rehn,  
 M. L. Vidal,  Zhi-Qiang You,  Ying Zhu,  B. Alam,  B. Albrecht,  
 A. Aldossary,  E. Alguire,  J. H. Andersen,  D. Barton,  K. Begam,  A. Behn,  
 Y. A. Bernard,  E. J. Berquist,  H. Burton,  A. Carreras,  K. Carter-Fenk,  
 R. Chakraborty,  A. D. Chien,  K. D. Closser,  V. Cofer-Shabica,  
 S. Dasgupta,  Jia Deng,  M. de Wergifosse,  M. Diedenhofen,  Hainam Do,  
 S. Ehlert,  Po-Tung Fang,  S. Fatehi,  Qingguo Feng,  J. Gayvert,  
 Qinghui Ge,  G. Gidofalvi,  M. Goldey,  J. Gomes,  C. Gonzalez-Espinoza,  
 S. Gulania,  A. Gunina,  M. W. D. Hanson-Heine,  P. H. P. Harbach,  
 A. W. Hauser,  M. F. Herbst,  M. Hernandez Vera,  M. Hodecker,  
 Z. C. Holden,  S. Houck,  Xunkun Huang,  Kerwin Hui,  B. C. Huynh,  
 M. Ivanov,  Hyunjun Ji,  Hanjie Jiang,  B. Kaduk,  S. Kaehler,  
 K. Khistyaev,  Jaehoon Kim,  P. Klunzinger,  Z. Koczor-Benda,  
 Joong Hoon Koh,  D. Kosenkov,  L. Koulias,  T. Kowalczyk,  C. M. Krauter,  
 K. Kue,  A. Kunitsa,  T. Kus,  A. Landau,  K. V. Lawler,  D. Lefrancois,  
 S. Lehtola,  Rain Li,  Yi-Pei Li,  Jiashu Liang,  M. Liebenthal,  
 Hung-Hsuan Lin,  You-Sheng Lin,  Fenglai Liu,  Kuan-Yu Liu,  
 M. Loipersberger,  A. Luenser,  A. Manjanath,  P. Manohar,  E. Mansoor,  
 S. F. Manzer,  Shan-Ping Mao,  A. V. Marenich,  T. Markovich,  S. Mason,  
 S. A. Maurer,  P. F. McLaughlin,  M. F. S. J. Menger,  J.-M. Mewes,  
 S. A. Mewes,  P. Morgante,  J. W. Mullinax,  T. S. Nguyen-Beck,  
 K. J. Oosterbaan,  G. Paran,  Alexander C. Paul,  Suranjan K. Paul,  
 F. Pavosevic,  Zheng Pei,  S. Prager,  E. I. Proynov,  E. Ramos,  B. Rana,  
 A. E. Rask,  A. Rettig,  R. M. Richard,  F. Rob,  E. Rossomme,  T. Scheele,  
 M. Scheurer,  M. Schneider,  N. Sergueev,  S. M. Sharada,  W. Skomorowski,  
 D. W. Small,  C. J. Stein,  Yu-Chuan Su,  E. J. Sundstrom,  Zhen Tao,  
 J. Thirman,  T. Tsuchimochi,  N. M. Tubman,  S. P. Veccham,  O. Vydrov,  
 J. Wenzel,  J. Witte,  A. Yamada,  Kun Yao,  S. Yeganeh,  S. R. Yost,  
 A. Zech,  Igor Ying Zhang,  Xing Zhang,  Yu Zhang,  D. Zuev,  
 A. Aspuru-Guzik,  A. T. Bell,  N. A. Besley,  K. B. Bravaya,  B. R. Brooks,  
 D. Casanova,  Jeng-Da Chai,  S. Coriani,  C. J. Cramer,  
 A. E. DePrince, III,  R. A. DiStasio Jr.,  A. Dreuw,  B. D. Dunietz,  
 T. R. Furlani,  W. A. Goddard III,  S. Grimme,  S. Hammes-Schiffer,  
 T. Head-Gordon,  W. J. Hehre,  Chao-Ping Hsu,  T.-C. Jagau,  Yousung Jung,  
 A. Klamt,  Jing Kong,  D. S. Lambrecht,  WanZhen Liang,  N. J. Mayhall,  
 C. W. McCurdy,  J. B. Neaton,  C. Ochsenfeld,  J. A. Parkhill,  R. Peverati,  
 V. A. Rassolov,  Yihan Shao,  L. V. Slipchenko,  T. Stauch,  R. P. Steele,  
 J. E. Subotnik,  A. J. W. Thom,  A. Tkatchenko,  D. G. Truhlar,  
 T. Van Voorhis,  T. A. Wesolowski,  K. B. Whaley,  H. L. Woodcock III,  
 P. M. Zimmerman,  S. Faraji,  P. M. W. Gill,  M. Head-Gordon,  
 J. M. Herbert,  A. I. Krylov

 Contributors to earlier versions of Q-Chem not listed above: 
 R. D. Adamson,  B. Austin,  R. Baer,  J. Baker,  G. J. O. Beran,  
 K. Brandhorst,  S. T. Brown,  E. F. C. Byrd,  A. K. Chakraborty,  
 G. K. L. Chan,  Chun-Min Chang,  Yunqing Chen,  C.-L. Cheng,  
 Siu Hung Chien,  D. M. Chipman,  D. L. Crittenden,  H. Dachsel,  
 R. J. Doerksen,  A. D. Dutoi,  R. G. Edgar,  J. Fosso-Tande,  
 L. Fusti-Molnar,  D. Ghosh,  A. Ghysels,  A. Golubeva-Zadorozhnaya,  
 J. Gonthier,  M. S. Gordon,  S. R. Gwaltney,  G. Hawkins,  J. E. Herr,  
 A. Heyden,  S. Hirata,  E. G. Hohenstein,  G. Kedziora,  F. J. Keil,  
 C. Kelley,  Jihan Kim,  R. A. King,  R. Z. Khaliullin,  P. P. Korambath,  
 W. Kurlancheek,  A. Laurent,  A. M. Lee,  M. S. Lee,  S. V. Levchenko,  
 Ching Yeh Lin,  D. Liotard,  E. Livshits,  R. C. Lochan,  I. Lotan,  
 L. A. Martinez-Martinez,  P. E. Maslen,  N. Nair,  D. P. O'Neill,  
 D. Neuhauser,  E. Neuscamman,  C. M. Oana,  R. Olivares-Amaya,  R. Olson,  
 T. M. Perrine,  B. Peters,  P. A. Pieniazek,  A. Prociuk,  Y. M. Rhee,  
 J. Ritchie,  M. A. Rohrdanz,  E. Rosta,  N. J. Russ,  H. F. Schaefer III,  
 M. W. Schmidt,  N. E. Schultz,  S. Sharma,  N. Shenvi,  C. D. Sherrill,  
 A. C. Simmonett,  A. Sodt,  T. Stein,  D. Stuck,  K. S. Thanthiriwatte,  
 V. Vanovschi,  L. Vogt,  Tao Wang,  A. Warshel,  M. A. Watson,  
 C. F. Williams,  Q. Wu,  X. Xu,  Jun Yang,  W. Zhang,  Yan Zhao

 Please cite Q-Chem as follows:
 Y. Shao et al., Mol. Phys. 113, 184-215 (2015)
 DOI: 10.1080/00268976.2014.952696

 Q-Chem 5.4.0 for Intel X86 EM64T Linux

 Parts of Q-Chem use Armadillo 9.800.1 (Horizon Scraper).
 http://arma.sourceforge.net/

 Q-Chem begins on Sun Jul 10 09:52:25 2022  

 Host: 
0

     Scratch files written to ./qchem1911140//
 May1621 |scratch|qcdevops|jenkins|workspace|build_RNUM    
 Processing $rem in /cm/shared/apps/spack/cpu/opt/spack/linux-centos8-zen2/gcc-10.2.0/qchem-5.4-akfmr7b3t57bfs6qan3padb2wnb2i7cl/config/preferences:
 Processing $rem in /home/theleonzhang/.qchemrc:
 Symmetry turned off for PCM/SM12/SMD calculation
 Core orbitals will be frozen

 Checking the input file for inconsistencies... 	...done.

--------------------------------------------------------------
User input:
--------------------------------------------------------------
$molecule
0 1
C	-0.518523	-0.333974	0.010277
C	0.143077	0.221126	1.109677
C	1.203177	1.110626	0.786977
H	-0.139423	-0.015974	2.146377
C	1.372277	1.252426	-0.602223
S	0.203377	0.271726	-1.476523
C	2.036477	1.809826	1.824877
H	1.710377	1.536226	2.846977
H	1.964077	2.914026	1.736477
H	3.111277	1.546726	1.736477
C	-0.518523	-1.774674	0.010277
H	-0.888023	-1.774374	1.025077
H	-1.288323	-2.478474	-0.269923
H	0.371477	-2.293574	0.334177
H	2.099377	1.862626	-1.151323
$end

$rem
JOBTYPE		SP
EXCHANGE	HF
CORRELATION	pRIMP2
BASIS		cc-pvtz
METHOD		rimp2
AUX_BASIS	rimp2-cc-pvtz
SOLVENT_METHOD	PCM
PURECART	11111
SYMMETRY	false
MEM_TOTAL	110000
SCF_CONVERGENCE = 6
THRESH=10
$end



$solvent
dielectric 4.90
$end
--------------------------------------------------------------
 ----------------------------------------------------------------
             Standard Nuclear Orientation (Angstroms)
    I     Atom           X                Y                Z
 ----------------------------------------------------------------
    1      C      -0.5185230000    -0.3339740000     0.0102770000
    2      C       0.1430770000     0.2211260000     1.1096770000
    3      C       1.2031770000     1.1106260000     0.7869770000
    4      H      -0.1394230000    -0.0159740000     2.1463770000
    5      C       1.3722770000     1.2524260000    -0.6022230000
    6      S       0.2033770000     0.2717260000    -1.4765230000
    7      C       2.0364770000     1.8098260000     1.8248770000
    8      H       1.7103770000     1.5362260000     2.8469770000
    9      H       1.9640770000     2.9140260000     1.7364770000
   10      H       3.1112770000     1.5467260000     1.7364770000
   11      C      -0.5185230000    -1.7746740000     0.0102770000
   12      H      -0.8880230000    -1.7743740000     1.0250770000
   13      H      -1.2883230000    -2.4784740000    -0.2699230000
   14      H       0.3714770000    -2.2935740000     0.3341770000
   15      H       2.0993770000     1.8626260000    -1.1513230000
 ----------------------------------------------------------------
 Nuclear Repulsion Energy =         348.67266481 hartrees
 There are       30 alpha and       30 beta electrons

 Q-Chem warning in module forms1/BasisType.C, line 2236:

 You are not using the predefined 5D/6D in this basis set.

 Requested basis set is cc-pVTZ
 There are 120 shells and 326 basis functions

 Total QAlloc Memory Limit 110000 MB
 Mega-Array Size       188 MB
 MEM_STATIC part       192 MB
 Discretize the solute cavity surface with Lebedev spheres
	Using 110 Lebedev grid points for each H atom
	Using 194 Lebedev grid points for other atoms
	Atomic van der Waals radii will be scaled by 1.20
 Remove points where switching function is < 1.0e-08
 Keep 1049 surface tesserae and discard 1189 interior tesserae
 Molecular Surface Area = 156.418 Angst**2

                       Distance Matrix (Angstroms)
             C (  1)   C (  2)   C (  3)   H (  4)   C (  5)   S (  6)
   C (  2)  1.398045
   C (  3)  2.377895  1.420971
   H (  4)  2.192661  1.100350  2.218056
   C (  5)  2.543019  2.346298  1.406620  3.383619
   S (  6)  1.760280  2.587398  2.612812  3.650437  1.758551
   C (  7)  3.796930  2.573022  1.503498  2.858575  2.577338  4.077407
   H (  8)  4.063559  2.684051  2.163790  2.514344  3.477332  4.750017
   H (  9)  4.437631  3.310684  2.175493  3.630101  2.929276  4.517210
   H ( 10)  4.437595  3.310635  2.175449  3.630028  2.929207  4.517176
   C ( 11)  1.440700  2.372680  3.448546  2.792788  3.621273  2.630488
   H ( 12)  1.800306  2.247742  3.571139  2.215781  4.113220  3.411112
   H ( 13)  2.295645  3.352617  4.495136  3.636259  4.594435  3.353305
   H ( 14)  2.176475  2.641455  3.533459  2.955089  3.801652  3.144464
   H ( 15)  3.609400  3.410829  2.263998  4.406380  1.096599  2.496304
             C (  7)   H (  8)   H (  9)   H ( 10)   C ( 11)   H ( 12)
   H (  8)  1.107198
   H (  9)  1.110096  1.787710
   H ( 10)  1.110059  1.787692  1.784819
   C ( 11)  4.761243  4.896623  5.579156  5.214107
   H ( 12)  4.694557  4.585965  5.533684  5.246922  1.079977
   H ( 13)  5.816528  5.901278  6.609297  6.291610  1.080018  1.527423
   H ( 14)  4.672505  4.772231  5.623337  4.921469  1.079939  1.527499
   H ( 15)  2.977333  4.030417  3.076221  3.076219  4.629543  5.185465
             H ( 13)   H ( 14)
   H ( 14)  1.775968
   H ( 15)  5.576605  4.739868
 
 Requested basis set is rimp2-cc-pVTZ
 There are 250 shells and 848 basis functions
 A cutoff of  1.0D-10 yielded   6325 shell pairs
 There are     46513 function pairs (     59842 Cartesian)
 Smallest overlap matrix eigenvalue = 1.27E-04

 Scale SEOQF with 1.000000e-01/1.000000e-01/1.000000e-01

 Standard Electronic Orientation quadrupole field applied
 Nucleus-field energy     =    -0.0000000007 hartrees
 Guess from superposition of atomic densities
 Warning:  Energy on first SCF cycle will be non-variational
 SAD guess density has 60.000000 electrons

 -----------------------------------------------------------------------
  General SCF calculation program by
  Eric Jon Sundstrom, Paul Horn, Yuezhi Mao, Dmitri Zuev, Alec White,
  David Stuck, Shaama M.S., Shane Yost, Joonho Lee, David Small,
  Daniel Levine, Susi Lehtola, Hugh Burton, Evgeny Epifanovsky,
  Bang C. Huynh
 -----------------------------------------------------------------------
 Hartree-Fock
 A restricted SCF calculation will be
 performed using DIIS
 SCF converges when DIIS error is below 1.0e-06
 ---------------------------------------
  Cycle       Energy         DIIS error
 ---------------------------------------
    1    -632.1739926108      2.94e-02  
    2    -629.2973877025      1.90e-03  
    3    -629.3669969696      6.20e-04  
    4    -629.3740606867      3.14e-04  
    5    -629.3758307397      6.29e-05  
    6    -629.3759809211      2.96e-05  
    7    -629.3760252267      1.32e-05  
    8    -629.3760407836      6.72e-06  
    9    -629.3760437908      2.37e-06  
   10    -629.3760441712      8.35e-07  Convergence criterion met
 ---------------------------------------
 SCF time:   CPU 147.89s  wall 149.00s 

************** Final PCM Free Energy Summary **************
 G_electrostatic  =      -0.00566800 hartree =      -3.55672534 kcal/mol
 G_cavitation     =       0.00000000 hartree =       0.00000000 kcal/mol
 G_dispersion     =       0.00000000 hartree =       0.00000000 kcal/mol
 G_repulsion      =       0.00000000 hartree =       0.00000000 kcal/mol
 --------------------------------------------------
 Non-electrostatic Free Energy =       0.00000000 hartree =       0.00000000 kcal/mol
 Total                         =      -0.00566800 hartree =      -3.55672534 kcal/mol
 --------------------------------------------------
 SCF Energy (H0 + V/2)                       =    -629.37604417 
 Solute Internal Energy (H0)                 =    -629.37037617 
 Total Free Energy (H0 + V/2 + non-elec)     =    -629.37604417 hartree
                                             = -394939.42853797 kcal/mol
***********************************************************

 SCF   energy in the final basis set =     -629.3760441712
 Total energy in the final basis set =     -629.3760441712


 --------------------------------------------------------------
  Generalized many-body perturbation theory program
  by Joonho Lee, Fazle Rob, Xintian Feng, Evgeny Epifanovsky

 No regularization used 
 (reg. param. = 0.0000e+00)
  (P|Q)^-1/2 Time:  CPU 0.48 s  wall 0.48 s

 In RI-MP2 calculation: 
 # of frozen core orbitals: 11

 Components of the RIMP2 correlation energy:
        aaaa    correlation energy =        -0.1473974779 a.u.
        abab    correlation energy =        -0.8932057040 a.u.
        bbbb    correlation energy =        -0.1473974779 a.u.
        non-Brillouin singles      =        -0.0000000000 a.u.
        total same-spin energy     =        -0.2947949559 a.u.
        total opposite-spin energy =        -0.8932057040 a.u.

 Total  RIMP2   correlation energy =        -1.1880006599 a.u.
        RIMP2         total energy =      -630.5640448312 a.u.

 RI-MP2 Energy Time:  CPU 11.17 s  wall 11.20 s
 
 --------------------------------------------------------------
 
                    Orbital Energies (a.u.)
 --------------------------------------------------------------
 
 Alpha MOs
 -- Occupied --
-91.9719 -11.2748 -11.2556 -11.2493 -11.2474 -11.2290 -11.2104  -8.9728
 -6.6537  -6.6528  -6.6525  -1.1695  -1.0551  -1.0003  -0.9356  -0.8839
 -0.7457  -0.7304  -0.6438  -0.5917  -0.5827  -0.5665  -0.5556  -0.5427
 -0.5168  -0.4779  -0.4627  -0.4241  -0.3364  -0.3041
 -- Virtual --
  0.0715   0.1426   0.1576   0.1754   0.1794   0.1901   0.2059   0.2246
  0.2343   0.2387   0.2518   0.2650   0.2923   0.3096   0.3400   0.3557
  0.3720   0.3929   0.4091   0.4182   0.4323   0.4523   0.4614   0.4676
  0.4828   0.4946   0.5005   0.5335   0.5390   0.5576   0.5704   0.5837
  0.5891   0.5991   0.6089   0.6249   0.6324   0.6346   0.6406   0.6450
  0.6645   0.6698   0.6813   0.6909   0.7197   0.7423   0.7747   0.7894
  0.7976   0.8130   0.8304   0.8517   0.8722   0.8872   0.9011   0.9368
  0.9650   0.9762   1.0032   1.0228   1.0256   1.0445   1.0627   1.0771
  1.0865   1.0938   1.1203   1.1570   1.1782   1.1856   1.1975   1.2051
  1.2197   1.2367   1.2626   1.2744   1.2907   1.3021   1.3037   1.3277
  1.3509   1.3634   1.3876   1.4033   1.4157   1.4225   1.4450   1.4746
  1.4957   1.5089   1.5162   1.5274   1.5392   1.5542   1.5659   1.5837
  1.6019   1.6471   1.6637   1.6757   1.6925   1.6976   1.7176   1.7279
  1.7473   1.7794   1.7916   1.8434   1.8875   1.9129   1.9381   1.9560
  1.9783   2.0463   2.0573   2.1305   2.1438   2.1824   2.2013   2.2053
  2.2555   2.2720   2.3429   2.4023   2.4225   2.4747   2.5301   2.5590
  2.5813   2.5944   2.6384   2.6489   2.6602   2.6875   2.7330   2.7412
  2.7618   2.7710   2.7832   2.8194   2.8242   2.8426   2.8804   2.9025
  2.9241   2.9422   2.9575   2.9747   3.0055   3.0288   3.0396   3.0611
  3.0941   3.1101   3.1225   3.1491   3.1636   3.1669   3.1720   3.1922
  3.2196   3.2344   3.2443   3.2584   3.2802   3.2869   3.3061   3.3297
  3.3371   3.3498   3.3757   3.3826   3.4006   3.4114   3.4185   3.4360
  3.4514   3.4685   3.4746   3.5029   3.5128   3.5207   3.5409   3.5646
  3.5749   3.5921   3.6020   3.6279   3.6397   3.6729   3.6807   3.6871
  3.6964   3.7159   3.7343   3.7394   3.7762   3.7956   3.8002   3.8173
  3.8275   3.8403   3.8741   3.8874   3.9095   3.9270   3.9532   3.9599
  3.9868   3.9948   4.0242   4.0387   4.0585   4.0682   4.0900   4.1069
  4.1429   4.1479   4.1809   4.1851   4.2169   4.2225   4.2443   4.2638
  4.2808   4.3053   4.3135   4.3379   4.3470   4.3692   4.4002   4.4067
  4.4276   4.4526   4.4783   4.4932   4.5193   4.5354   4.5611   4.5802
  4.6038   4.6449   4.6722   4.6784   4.6993   4.7582   4.7639   4.7955
  4.8165   4.8552   4.8630   4.9110   4.9198   4.9379   5.0143   5.0702
  5.1139   5.1453   5.1648   5.1972   5.2147   5.2609   5.2825   5.3137
  5.3595   5.4047   5.4153   5.4419   5.4703   5.5005   5.5460   5.5510
  5.6087   5.6184   5.6271   5.6899   5.7123   5.8073   5.8508   5.8650
  5.9165   5.9893   6.0659   6.1014   6.2130   6.2281   6.2645   6.3463
  6.4239   6.4841   9.2855  11.7012  12.8152  13.6755  14.1721  14.3565
 --------------------------------------------------------------
 
          Ground-State Mulliken Net Atomic Charges

     Atom                 Charge (a.u.)
  ----------------------------------------
      1 C                    -0.049123
      2 C                    -0.185929
      3 C                     0.008056
      4 H                     0.179841
      5 C                    -0.207899
      6 S                     0.005257
      7 C                    -0.267628
      8 H                     0.101667
      9 H                     0.106961
     10 H                     0.105802
     11 C                    -0.360541
     12 H                     0.105089
     13 H                     0.132622
     14 H                     0.130124
     15 H                     0.195700
  ----------------------------------------
  Sum of atomic charges =     0.000000

 -----------------------------------------------------------------
                    Cartesian Multipole Moments
 -----------------------------------------------------------------
    Charge (ESU x 10^10)
                -0.0000
    Dipole Moment (Debye)
         X       1.6643      Y       0.2271      Z       2.2371
       Tot       2.7975
    Quadrupole Moments (Debye-Ang)
        XX     -48.8376     XY       5.1897     YY     -48.2535
        XZ      -0.1488     YZ      -0.8991     ZZ     -48.4156
    Octopole Moments (Debye-Ang^2)
       XXX     -72.3327    XXY     -10.1490    XYY     -21.4388
       YYY     -48.9216    XXZ      -4.5688    XYZ      -2.2290
       YYZ      -1.7892    XZZ     -23.1457    YZZ     -12.8017
       ZZZ       1.8674
    Hexadecapole Moments (Debye-Ang^3)
      XXXX    -402.4746   XXXY    -152.3361   XXYY    -136.1843
      XYYY    -153.8528   YYYY    -483.5361   XXXZ     -75.1236
      XXYZ     -23.9846   XYYZ     -26.8531   YYYZ     -63.2704
      XXZZ    -146.2659   XYZZ     -47.0054   YYZZ    -164.7260
      XZZZ     -76.8295   YZZZ     -59.6206   ZZZZ    -480.7651
 -----------------------------------------------------------------
 Total job time:  160.33s(wall), 159.42s(cpu) 
 Sun Jul 10 09:55:05 2022

        *************************************************************
        *                                                           *
        *  Thank you very much for using Q-Chem.  Have a nice day.  *
        *                                                           *
        *************************************************************


remove work dirs ./qchem1911140.0 -- ./qchem1911140.-1
rm -rf ./qchem1911140
