You are running Q-Chem version: 5.4.0

#
# job setting
#
local host:  exp-7-01
current dir: /expanse/lustre/scratch/theleonzhang/temp_project/Hydrogenated_Impropers_Test
input file:  Methylthiophene_Phi_40_Theta_260_Methylthiophene_Hydrogenated_Improper.qcin
output file: 
nprocs     : 0
nthreads   : 1
#
# qchem installation setting
#
QC:          /cm/shared/apps/spack/cpu/opt/spack/linux-centos8-zen2/gcc-10.2.0/qchem-5.4-akfmr7b3t57bfs6qan3padb2wnb2i7cl
QCAUX:       /cm/shared/apps/spack/cpu/opt/spack/linux-centos8-zen2/gcc-10.2.0/qchem-5.4-akfmr7b3t57bfs6qan3padb2wnb2i7cl/qcaux
QCPROG:      /cm/shared/apps/spack/cpu/opt/spack/linux-centos8-zen2/gcc-10.2.0/qchem-5.4-akfmr7b3t57bfs6qan3padb2wnb2i7cl/exe/qcprog.exe_s
QCPROG_S:    /cm/shared/apps/spack/cpu/opt/spack/linux-centos8-zen2/gcc-10.2.0/qchem-5.4-akfmr7b3t57bfs6qan3padb2wnb2i7cl/exe/qcprog.exe_s
PARALLEL:    -DSERIAL
QCMPI:       mpich
#
# qchem directory setting
#
qcrun:       qchem920130
QCSCRATCH:   .
QCLOCALSCR:  
QCTMPDIR:    .
QCFILEPREF:  ./qchem920130
QCSAVEDIR:   
workdirs:    ./qchem920130
workdir0:    ./qchem920130
partmpdirs =  
#
# parallel setting
#
QCRSH:           ssh
QCMPI:           mpich
QCMPIRUN:        /cm/shared/apps/spack/cpu/opt/spack/linux-centos8-zen2/gcc-10.2.0/qchem-5.4-akfmr7b3t57bfs6qan3padb2wnb2i7cl/bin/mpi/mpirun_qchem
QCMACHINEFILE:   ./qchem920130/hostfile

#
# env setting
#
exported envs:   QC QCAUX QCSCRATCH QCRUNNAME QCFILEPREF QCPROG QCPROG_S GUIFILE

Running Job 1 of 1 Methylthiophene_Phi_40_Theta_260_Methylthiophene_Hydrogenated_Improper.qcin
qchem Methylthiophene_Phi_40_Theta_260_Methylthiophene_Hydrogenated_Improper.qcin_920130.0 ./qchem920130/ 0
/cm/shared/apps/spack/cpu/opt/spack/linux-centos8-zen2/gcc-10.2.0/qchem-5.4-akfmr7b3t57bfs6qan3padb2wnb2i7cl/exe/qcprog.exe_s Methylthiophene_Phi_40_Theta_260_Methylthiophene_Hydrogenated_Improper.qcin_920130.0 ./qchem920130/
                  Welcome to Q-Chem
     A Quantum Leap Into The Future Of Chemistry


 Q-Chem 5.4, Q-Chem, Inc., Pleasanton, CA (2021)

 License issued to: University of California, San Diego (site)

 E. Epifanovsky,  A. T. B. Gilbert,  Xintian Feng,  Joonho Lee,  Yuezhi Mao,  
 N. Mardirossian,  P. Pokhilko,  A. White,  M. Wormit,  M. P. Coons,  
 A. L. Dempwolff,  Zhengting Gan,  D. Hait,  P. R. Horn,  L. D. Jacobson,  
 I. Kaliman,  J. Kussmann,  A. W. Lange,  Ka Un Lao,  D. S. Levine,  Jie Liu,  
 S. C. McKenzie,  A. F. Morrison,  K. Nanda,  F. Plasser,  D. R. Rehn,  
 M. L. Vidal,  Zhi-Qiang You,  Ying Zhu,  B. Alam,  B. Albrecht,  
 A. Aldossary,  E. Alguire,  J. H. Andersen,  D. Barton,  K. Begam,  A. Behn,  
 Y. A. Bernard,  E. J. Berquist,  H. Burton,  A. Carreras,  K. Carter-Fenk,  
 R. Chakraborty,  A. D. Chien,  K. D. Closser,  V. Cofer-Shabica,  
 S. Dasgupta,  Jia Deng,  M. de Wergifosse,  M. Diedenhofen,  Hainam Do,  
 S. Ehlert,  Po-Tung Fang,  S. Fatehi,  Qingguo Feng,  J. Gayvert,  
 Qinghui Ge,  G. Gidofalvi,  M. Goldey,  J. Gomes,  C. Gonzalez-Espinoza,  
 S. Gulania,  A. Gunina,  M. W. D. Hanson-Heine,  P. H. P. Harbach,  
 A. W. Hauser,  M. F. Herbst,  M. Hernandez Vera,  M. Hodecker,  
 Z. C. Holden,  S. Houck,  Xunkun Huang,  Kerwin Hui,  B. C. Huynh,  
 M. Ivanov,  Hyunjun Ji,  Hanjie Jiang,  B. Kaduk,  S. Kaehler,  
 K. Khistyaev,  Jaehoon Kim,  P. Klunzinger,  Z. Koczor-Benda,  
 Joong Hoon Koh,  D. Kosenkov,  L. Koulias,  T. Kowalczyk,  C. M. Krauter,  
 K. Kue,  A. Kunitsa,  T. Kus,  A. Landau,  K. V. Lawler,  D. Lefrancois,  
 S. Lehtola,  Rain Li,  Yi-Pei Li,  Jiashu Liang,  M. Liebenthal,  
 Hung-Hsuan Lin,  You-Sheng Lin,  Fenglai Liu,  Kuan-Yu Liu,  
 M. Loipersberger,  A. Luenser,  A. Manjanath,  P. Manohar,  E. Mansoor,  
 S. F. Manzer,  Shan-Ping Mao,  A. V. Marenich,  T. Markovich,  S. Mason,  
 S. A. Maurer,  P. F. McLaughlin,  M. F. S. J. Menger,  J.-M. Mewes,  
 S. A. Mewes,  P. Morgante,  J. W. Mullinax,  T. S. Nguyen-Beck,  
 K. J. Oosterbaan,  G. Paran,  Alexander C. Paul,  Suranjan K. Paul,  
 F. Pavosevic,  Zheng Pei,  S. Prager,  E. I. Proynov,  E. Ramos,  B. Rana,  
 A. E. Rask,  A. Rettig,  R. M. Richard,  F. Rob,  E. Rossomme,  T. Scheele,  
 M. Scheurer,  M. Schneider,  N. Sergueev,  S. M. Sharada,  W. Skomorowski,  
 D. W. Small,  C. J. Stein,  Yu-Chuan Su,  E. J. Sundstrom,  Zhen Tao,  
 J. Thirman,  T. Tsuchimochi,  N. M. Tubman,  S. P. Veccham,  O. Vydrov,  
 J. Wenzel,  J. Witte,  A. Yamada,  Kun Yao,  S. Yeganeh,  S. R. Yost,  
 A. Zech,  Igor Ying Zhang,  Xing Zhang,  Yu Zhang,  D. Zuev,  
 A. Aspuru-Guzik,  A. T. Bell,  N. A. Besley,  K. B. Bravaya,  B. R. Brooks,  
 D. Casanova,  Jeng-Da Chai,  S. Coriani,  C. J. Cramer,  
 A. E. DePrince, III,  R. A. DiStasio Jr.,  A. Dreuw,  B. D. Dunietz,  
 T. R. Furlani,  W. A. Goddard III,  S. Grimme,  S. Hammes-Schiffer,  
 T. Head-Gordon,  W. J. Hehre,  Chao-Ping Hsu,  T.-C. Jagau,  Yousung Jung,  
 A. Klamt,  Jing Kong,  D. S. Lambrecht,  WanZhen Liang,  N. J. Mayhall,  
 C. W. McCurdy,  J. B. Neaton,  C. Ochsenfeld,  J. A. Parkhill,  R. Peverati,  
 V. A. Rassolov,  Yihan Shao,  L. V. Slipchenko,  T. Stauch,  R. P. Steele,  
 J. E. Subotnik,  A. J. W. Thom,  A. Tkatchenko,  D. G. Truhlar,  
 T. Van Voorhis,  T. A. Wesolowski,  K. B. Whaley,  H. L. Woodcock III,  
 P. M. Zimmerman,  S. Faraji,  P. M. W. Gill,  M. Head-Gordon,  
 J. M. Herbert,  A. I. Krylov

 Contributors to earlier versions of Q-Chem not listed above: 
 R. D. Adamson,  B. Austin,  R. Baer,  J. Baker,  G. J. O. Beran,  
 K. Brandhorst,  S. T. Brown,  E. F. C. Byrd,  A. K. Chakraborty,  
 G. K. L. Chan,  Chun-Min Chang,  Yunqing Chen,  C.-L. Cheng,  
 Siu Hung Chien,  D. M. Chipman,  D. L. Crittenden,  H. Dachsel,  
 R. J. Doerksen,  A. D. Dutoi,  R. G. Edgar,  J. Fosso-Tande,  
 L. Fusti-Molnar,  D. Ghosh,  A. Ghysels,  A. Golubeva-Zadorozhnaya,  
 J. Gonthier,  M. S. Gordon,  S. R. Gwaltney,  G. Hawkins,  J. E. Herr,  
 A. Heyden,  S. Hirata,  E. G. Hohenstein,  G. Kedziora,  F. J. Keil,  
 C. Kelley,  Jihan Kim,  R. A. King,  R. Z. Khaliullin,  P. P. Korambath,  
 W. Kurlancheek,  A. Laurent,  A. M. Lee,  M. S. Lee,  S. V. Levchenko,  
 Ching Yeh Lin,  D. Liotard,  E. Livshits,  R. C. Lochan,  I. Lotan,  
 L. A. Martinez-Martinez,  P. E. Maslen,  N. Nair,  D. P. O'Neill,  
 D. Neuhauser,  E. Neuscamman,  C. M. Oana,  R. Olivares-Amaya,  R. Olson,  
 T. M. Perrine,  B. Peters,  P. A. Pieniazek,  A. Prociuk,  Y. M. Rhee,  
 J. Ritchie,  M. A. Rohrdanz,  E. Rosta,  N. J. Russ,  H. F. Schaefer III,  
 M. W. Schmidt,  N. E. Schultz,  S. Sharma,  N. Shenvi,  C. D. Sherrill,  
 A. C. Simmonett,  A. Sodt,  T. Stein,  D. Stuck,  K. S. Thanthiriwatte,  
 V. Vanovschi,  L. Vogt,  Tao Wang,  A. Warshel,  M. A. Watson,  
 C. F. Williams,  Q. Wu,  X. Xu,  Jun Yang,  W. Zhang,  Yan Zhao

 Please cite Q-Chem as follows:
 Y. Shao et al., Mol. Phys. 113, 184-215 (2015)
 DOI: 10.1080/00268976.2014.952696

 Q-Chem 5.4.0 for Intel X86 EM64T Linux

 Parts of Q-Chem use Armadillo 9.800.1 (Horizon Scraper).
 http://arma.sourceforge.net/

 Q-Chem begins on Sun Jul 10 09:37:16 2022  

 Host: 
0

     Scratch files written to ./qchem920130//
 May1621 |scratch|qcdevops|jenkins|workspace|build_RNUM    
 Processing $rem in /cm/shared/apps/spack/cpu/opt/spack/linux-centos8-zen2/gcc-10.2.0/qchem-5.4-akfmr7b3t57bfs6qan3padb2wnb2i7cl/config/preferences:
 Processing $rem in /home/theleonzhang/.qchemrc:
 Symmetry turned off for PCM/SM12/SMD calculation
 Core orbitals will be frozen

 Checking the input file for inconsistencies... 	...done.

--------------------------------------------------------------
User input:
--------------------------------------------------------------
$molecule
0 1
C	-0.437448	-0.417597	0.010354
C	0.117652	0.243903	1.109754
C	1.007252	1.304103	0.787054
H	-0.119348	-0.038597	2.146454
C	1.149152	1.473103	-0.602146
S	0.168352	0.304303	-1.476446
C	1.706452	2.137303	1.824954
H	1.432852	1.811303	2.847054
H	1.443452	3.212103	1.736554
H	2.810652	2.064903	1.736554
C	-0.437448	-1.858297	0.010354
H	-0.250048	-1.857997	1.073954
H	-1.244248	-2.562097	0.152554
H	0.495252	-2.377197	-0.154146
H	1.759252	2.200203	-1.151246
$end

$rem
JOBTYPE		SP
EXCHANGE	HF
CORRELATION	pRIMP2
BASIS		cc-pvtz
METHOD		rimp2
AUX_BASIS	rimp2-cc-pvtz
SOLVENT_METHOD	PCM
PURECART	11111
SYMMETRY	false
MEM_TOTAL	110000
SCF_CONVERGENCE = 6
THRESH=10
$end



$solvent
dielectric 4.90
$end
--------------------------------------------------------------
 ----------------------------------------------------------------
             Standard Nuclear Orientation (Angstroms)
    I     Atom           X                Y                Z
 ----------------------------------------------------------------
    1      C      -0.4374480000    -0.4175970000     0.0103540000
    2      C       0.1176520000     0.2439030000     1.1097540000
    3      C       1.0072520000     1.3041030000     0.7870540000
    4      H      -0.1193480000    -0.0385970000     2.1464540000
    5      C       1.1491520000     1.4731030000    -0.6021460000
    6      S       0.1683520000     0.3043030000    -1.4764460000
    7      C       1.7064520000     2.1373030000     1.8249540000
    8      H       1.4328520000     1.8113030000     2.8470540000
    9      H       1.4434520000     3.2121030000     1.7365540000
   10      H       2.8106520000     2.0649030000     1.7365540000
   11      C      -0.4374480000    -1.8582970000     0.0103540000
   12      H      -0.2500480000    -1.8579970000     1.0739540000
   13      H      -1.2442480000    -2.5620970000     0.1525540000
   14      H       0.4952520000    -2.3771970000    -0.1541460000
   15      H       1.7592520000     2.2002030000    -1.1512460000
 ----------------------------------------------------------------
 Nuclear Repulsion Energy =         347.36597097 hartrees
 There are       30 alpha and       30 beta electrons

 Q-Chem warning in module forms1/BasisType.C, line 2236:

 You are not using the predefined 5D/6D in this basis set.

 Requested basis set is cc-pVTZ
 There are 120 shells and 326 basis functions

 Total QAlloc Memory Limit 110000 MB
 Mega-Array Size       188 MB
 MEM_STATIC part       192 MB
 Discretize the solute cavity surface with Lebedev spheres
	Using 110 Lebedev grid points for each H atom
	Using 194 Lebedev grid points for other atoms
	Atomic van der Waals radii will be scaled by 1.20
 Remove points where switching function is < 1.0e-08
 Keep 1047 surface tesserae and discard 1191 interior tesserae
 Molecular Surface Area = 156.981 Angst**2

                       Distance Matrix (Angstroms)
             C (  1)   C (  2)   C (  3)   H (  4)   C (  5)   S (  6)
   C (  2)  1.397998
   C (  3)  2.377955  1.421108
   H (  4)  2.192659  1.100328  2.218116
   C (  5)  2.543069  2.346386  1.406618  3.383656
   S (  6)  1.760315  2.587402  2.612812  3.650446  1.758540
   C (  7)  3.796919  2.573084  1.503442  2.858575  2.577316  4.077362
   H (  8)  4.063605  2.684158  2.163790  2.514417  3.477333  4.750017
   H (  9)  4.437598  3.310715  2.175382  3.630071  2.929207  4.517140
   H ( 10)  4.437649  3.310766  2.175458  3.630101  2.929220  4.517171
   C ( 11)  1.440700  2.436403  3.562470  2.824078  3.740412  2.693401
   H ( 12)  1.800310  2.134120  3.414966  2.116023  3.982876  3.369739
   H ( 13)  2.295654  3.262612  4.518777  3.407211  4.751923  3.586827
   H ( 14)  2.176470  2.934313  3.834054  3.337595  3.931043  3.007621
   H ( 15)  3.609388  3.410877  2.263958  4.406380  1.096543  2.496228
             C (  7)   H (  8)   H (  9)   H ( 10)   C ( 11)   H ( 12)
   H (  8)  1.107168
   H (  9)  1.110035  1.787614
   H ( 10)  1.110096  1.787696  1.784742
   C ( 11)  4.884045  5.001085  5.676840  5.377864
   H ( 12)  4.511576  4.409059  5.386362  5.019568  1.079983
   H ( 13)  5.795508  5.792566  6.563092  6.352983  1.080038  1.527471
   H ( 14)  5.075879  5.237349  5.976128  5.354258  1.079929  1.527505
   H ( 15)  2.977333  4.030407  3.076209  3.076221  4.758805  5.045571
             H ( 13)   H ( 14)
   H ( 14)  1.775982
   H ( 15)  5.779309  4.852267
 
 Requested basis set is rimp2-cc-pVTZ
 There are 250 shells and 848 basis functions
 A cutoff of  1.0D-10 yielded   6277 shell pairs
 There are     46165 function pairs (     59396 Cartesian)
 Smallest overlap matrix eigenvalue = 1.39E-04

 Scale SEOQF with 1.000000e-01/1.000000e-01/1.000000e-01

 Standard Electronic Orientation quadrupole field applied
 Nucleus-field energy     =     0.0000000003 hartrees
 Guess from superposition of atomic densities
 Warning:  Energy on first SCF cycle will be non-variational
 SAD guess density has 60.000000 electrons

 -----------------------------------------------------------------------
  General SCF calculation program by
  Eric Jon Sundstrom, Paul Horn, Yuezhi Mao, Dmitri Zuev, Alec White,
  David Stuck, Shaama M.S., Shane Yost, Joonho Lee, David Small,
  Daniel Levine, Susi Lehtola, Hugh Burton, Evgeny Epifanovsky,
  Bang C. Huynh
 -----------------------------------------------------------------------
 Hartree-Fock
 A restricted SCF calculation will be
 performed using DIIS
 SCF converges when DIIS error is below 1.0e-06
 ---------------------------------------
  Cycle       Energy         DIIS error
 ---------------------------------------
    1    -632.1593724075      2.94e-02  
    2    -629.3119424548      1.90e-03  
    3    -629.3817772153      6.18e-04  
    4    -629.3887827066      3.02e-04  
    5    -629.3904369268      6.25e-05  
    6    -629.3905739907      2.52e-05  
    7    -629.3906117232      1.20e-05  
    8    -629.3906236014      4.15e-06  
    9    -629.3906252130      1.53e-06  
   10    -629.3906253428      5.08e-07  Convergence criterion met
 ---------------------------------------
 SCF time:   CPU 146.14s  wall 147.00s 

************** Final PCM Free Energy Summary **************
 G_electrostatic  =      -0.00540797 hartree =      -3.39355392 kcal/mol
 G_cavitation     =       0.00000000 hartree =       0.00000000 kcal/mol
 G_dispersion     =       0.00000000 hartree =       0.00000000 kcal/mol
 G_repulsion      =       0.00000000 hartree =       0.00000000 kcal/mol
 --------------------------------------------------
 Non-electrostatic Free Energy =       0.00000000 hartree =       0.00000000 kcal/mol
 Total                         =      -0.00540797 hartree =      -3.39355392 kcal/mol
 --------------------------------------------------
 SCF Energy (H0 + V/2)                       =    -629.39062534 
 Solute Internal Energy (H0)                 =    -629.38521737 
 Total Free Energy (H0 + V/2 + non-elec)     =    -629.39062534 hartree
                                             = -394948.57836120 kcal/mol
***********************************************************

 SCF   energy in the final basis set =     -629.3906253428
 Total energy in the final basis set =     -629.3906253428


 --------------------------------------------------------------
  Generalized many-body perturbation theory program
  by Joonho Lee, Fazle Rob, Xintian Feng, Evgeny Epifanovsky

 No regularization used 
 (reg. param. = 0.0000e+00)
  (P|Q)^-1/2 Time:  CPU 0.48 s  wall 0.48 s

 In RI-MP2 calculation: 
 # of frozen core orbitals: 11

 Components of the RIMP2 correlation energy:
        aaaa    correlation energy =        -0.1468582221 a.u.
        abab    correlation energy =        -0.8913020349 a.u.
        bbbb    correlation energy =        -0.1468582221 a.u.
        non-Brillouin singles      =        -0.0000000000 a.u.
        total same-spin energy     =        -0.2937164443 a.u.
        total opposite-spin energy =        -0.8913020349 a.u.

 Total  RIMP2   correlation energy =        -1.1850184792 a.u.
        RIMP2         total energy =      -630.5756438220 a.u.

 RI-MP2 Energy Time:  CPU 11.17 s  wall 11.20 s
 
 --------------------------------------------------------------
 
                    Orbital Energies (a.u.)
 --------------------------------------------------------------
 
 Alpha MOs
 -- Occupied --
-91.9743 -11.2670 -11.2649 -11.2477 -11.2410 -11.2282 -11.2110  -8.9747
 -6.6555  -6.6549  -6.6545  -1.1667  -1.0546  -0.9999  -0.9363  -0.8834
 -0.7441  -0.7287  -0.6449  -0.5919  -0.5801  -0.5673  -0.5564  -0.5422
 -0.5144  -0.4716  -0.4684  -0.4354  -0.3346  -0.3037
 -- Virtual --
  0.0811   0.1433   0.1576   0.1775   0.1835   0.1926   0.1979   0.2258
  0.2342   0.2412   0.2510   0.2687   0.2988   0.3039   0.3428   0.3647
  0.3751   0.3861   0.4040   0.4188   0.4314   0.4547   0.4629   0.4701
  0.4906   0.4952   0.5111   0.5288   0.5372   0.5524   0.5720   0.5761
  0.5937   0.6039   0.6106   0.6262   0.6383   0.6398   0.6415   0.6487
  0.6585   0.6726   0.6791   0.6902   0.7459   0.7540   0.7623   0.7818
  0.8027   0.8161   0.8308   0.8387   0.8595   0.8750   0.8898   0.9264
  0.9591   0.9853   1.0070   1.0274   1.0378   1.0409   1.0631   1.0741
  1.0824   1.0974   1.1342   1.1548   1.1679   1.1841   1.1969   1.2129
  1.2156   1.2334   1.2536   1.2550   1.2771   1.2963   1.3280   1.3406
  1.3512   1.3715   1.3851   1.3961   1.4188   1.4214   1.4367   1.4795
  1.4959   1.5022   1.5212   1.5271   1.5540   1.5573   1.5733   1.5790
  1.5949   1.6365   1.6435   1.6620   1.6747   1.7058   1.7106   1.7237
  1.7716   1.7829   1.8090   1.8303   1.8826   1.9139   1.9455   1.9573
  1.9877   2.0383   2.0796   2.1353   2.1479   2.1918   2.2083   2.2166
  2.2566   2.2673   2.3355   2.4053   2.4501   2.4821   2.5377   2.5583
  2.5763   2.5946   2.6447   2.6535   2.6590   2.6875   2.7274   2.7426
  2.7496   2.7798   2.7864   2.8247   2.8340   2.8447   2.8725   2.8941
  2.9203   2.9343   2.9592   2.9722   2.9908   3.0158   3.0399   3.0606
  3.1067   3.1142   3.1285   3.1491   3.1592   3.1681   3.1765   3.1972
  3.2056   3.2407   3.2546   3.2568   3.2733   3.2868   3.3034   3.3294
  3.3415   3.3456   3.3731   3.3860   3.3977   3.4117   3.4193   3.4276
  3.4445   3.4840   3.4972   3.5054   3.5253   3.5315   3.5541   3.5664
  3.5901   3.5961   3.6168   3.6274   3.6412   3.6576   3.6754   3.6802
  3.7076   3.7205   3.7317   3.7408   3.7672   3.7852   3.7923   3.8018
  3.8166   3.8333   3.8539   3.8947   3.9180   3.9251   3.9393   3.9520
  3.9704   3.9723   4.0172   4.0411   4.0539   4.0672   4.1033   4.1265
  4.1451   4.1604   4.1676   4.1922   4.1983   4.2207   4.2289   4.2420
  4.2770   4.3016   4.3037   4.3288   4.3574   4.3663   4.3937   4.4030
  4.4272   4.4435   4.4671   4.4808   4.5116   4.5412   4.5460   4.5799
  4.6073   4.6593   4.6765   4.6930   4.7305   4.7546   4.7651   4.7889
  4.8092   4.8364   4.8468   4.9123   4.9317   4.9424   5.0667   5.0790
  5.1138   5.1574   5.1775   5.1843   5.2213   5.2585   5.2853   5.3047
  5.3695   5.3987   5.4087   5.4398   5.4730   5.4884   5.5459   5.5597
  5.5790   5.6244   5.6311   5.6903   5.7161   5.8159   5.8295   5.8660
  5.9124   5.9553   6.0268   6.1060   6.2263   6.2299   6.2684   6.3522
  6.4179   6.4516   9.2576  11.6776  12.8521  13.7161  14.1887  14.2363
 --------------------------------------------------------------
 
          Ground-State Mulliken Net Atomic Charges

     Atom                 Charge (a.u.)
  ----------------------------------------
      1 C                    -0.010855
      2 C                    -0.222025
      3 C                     0.023099
      4 H                     0.176247
      5 C                    -0.228978
      6 S                     0.001089
      7 C                    -0.269357
      8 H                     0.101283
      9 H                     0.107072
     10 H                     0.105957
     11 C                    -0.361861
     12 H                     0.120013
     13 H                     0.130597
     14 H                     0.133662
     15 H                     0.194057
  ----------------------------------------
  Sum of atomic charges =     0.000000

 -----------------------------------------------------------------
                    Cartesian Multipole Moments
 -----------------------------------------------------------------
    Charge (ESU x 10^10)
                -0.0000
    Dipole Moment (Debye)
         X       1.4353      Y       0.1390      Z       2.2075
       Tot       2.6367
    Quadrupole Moments (Debye-Ang)
        XX     -50.5389     XY       4.2488     YY     -46.5817
        XZ      -0.3713     YZ      -1.0866     ZZ     -48.5600
    Octopole Moments (Debye-Ang^2)
       XXX     -64.5084    XXY     -16.2319    XYY     -14.7456
       YYY     -60.0304    XXZ      -3.5016    XYZ      -0.9655
       YYZ      -1.5680    XZZ     -19.6979    YZZ     -16.6210
       ZZZ       1.4789
    Hexadecapole Moments (Debye-Ang^3)
      XXXX    -309.1429   XXXY    -152.6230   XXYY    -139.4363
      XYYY    -146.8543   YYYY    -589.5340   XXXZ     -61.5523
      XXYZ     -27.4751   XYYZ     -27.1454   YYYZ     -79.1229
      XXZZ    -133.0338   XYZZ     -44.8580   YYZZ    -181.0805
      XZZZ     -64.1686   YZZZ     -72.9305   ZZZZ    -480.7576
 -----------------------------------------------------------------
 Total job time:  159.44s(wall), 157.68s(cpu) 
 Sun Jul 10 09:39:55 2022

        *************************************************************
        *                                                           *
        *  Thank you very much for using Q-Chem.  Have a nice day.  *
        *                                                           *
        *************************************************************


remove work dirs ./qchem920130.0 -- ./qchem920130.-1
rm -rf ./qchem920130
