You are running Q-Chem version: 5.4.0

#
# job setting
#
local host:  exp-1-55
current dir: /expanse/lustre/scratch/theleonzhang/temp_project/Hydrogenated_Impropers_Test
input file:  Methylthiophene_Phi_20_Theta_130_Methylthiophene_Hydrogenated_Improper_Alternate.qcin
output file: 
nprocs     : 0
nthreads   : 1
#
# qchem installation setting
#
QC:          /cm/shared/apps/spack/cpu/opt/spack/linux-centos8-zen2/gcc-10.2.0/qchem-5.4-akfmr7b3t57bfs6qan3padb2wnb2i7cl
QCAUX:       /cm/shared/apps/spack/cpu/opt/spack/linux-centos8-zen2/gcc-10.2.0/qchem-5.4-akfmr7b3t57bfs6qan3padb2wnb2i7cl/qcaux
QCPROG:      /cm/shared/apps/spack/cpu/opt/spack/linux-centos8-zen2/gcc-10.2.0/qchem-5.4-akfmr7b3t57bfs6qan3padb2wnb2i7cl/exe/qcprog.exe_s
QCPROG_S:    /cm/shared/apps/spack/cpu/opt/spack/linux-centos8-zen2/gcc-10.2.0/qchem-5.4-akfmr7b3t57bfs6qan3padb2wnb2i7cl/exe/qcprog.exe_s
PARALLEL:    -DSERIAL
QCMPI:       mpich
#
# qchem directory setting
#
qcrun:       qchem1508992
QCSCRATCH:   .
QCLOCALSCR:  
QCTMPDIR:    .
QCFILEPREF:  ./qchem1508992
QCSAVEDIR:   
workdirs:    ./qchem1508992
workdir0:    ./qchem1508992
partmpdirs =  
#
# parallel setting
#
QCRSH:           ssh
QCMPI:           mpich
QCMPIRUN:        /cm/shared/apps/spack/cpu/opt/spack/linux-centos8-zen2/gcc-10.2.0/qchem-5.4-akfmr7b3t57bfs6qan3padb2wnb2i7cl/bin/mpi/mpirun_qchem
QCMACHINEFILE:   ./qchem1508992/hostfile

#
# env setting
#
exported envs:   QC QCAUX QCSCRATCH QCRUNNAME QCFILEPREF QCPROG QCPROG_S GUIFILE

Running Job 1 of 1 Methylthiophene_Phi_20_Theta_130_Methylthiophene_Hydrogenated_Improper_Alternate.qcin
qchem Methylthiophene_Phi_20_Theta_130_Methylthiophene_Hydrogenated_Improper_Alternate.qcin_1508992.0 ./qchem1508992/ 0
/cm/shared/apps/spack/cpu/opt/spack/linux-centos8-zen2/gcc-10.2.0/qchem-5.4-akfmr7b3t57bfs6qan3padb2wnb2i7cl/exe/qcprog.exe_s Methylthiophene_Phi_20_Theta_130_Methylthiophene_Hydrogenated_Improper_Alternate.qcin_1508992.0 ./qchem1508992/
                  Welcome to Q-Chem
     A Quantum Leap Into The Future Of Chemistry


 Q-Chem 5.4, Q-Chem, Inc., Pleasanton, CA (2021)

 License issued to: University of California, San Diego (site)

 E. Epifanovsky,  A. T. B. Gilbert,  Xintian Feng,  Joonho Lee,  Yuezhi Mao,  
 N. Mardirossian,  P. Pokhilko,  A. White,  M. Wormit,  M. P. Coons,  
 A. L. Dempwolff,  Zhengting Gan,  D. Hait,  P. R. Horn,  L. D. Jacobson,  
 I. Kaliman,  J. Kussmann,  A. W. Lange,  Ka Un Lao,  D. S. Levine,  Jie Liu,  
 S. C. McKenzie,  A. F. Morrison,  K. Nanda,  F. Plasser,  D. R. Rehn,  
 M. L. Vidal,  Zhi-Qiang You,  Ying Zhu,  B. Alam,  B. Albrecht,  
 A. Aldossary,  E. Alguire,  J. H. Andersen,  D. Barton,  K. Begam,  A. Behn,  
 Y. A. Bernard,  E. J. Berquist,  H. Burton,  A. Carreras,  K. Carter-Fenk,  
 R. Chakraborty,  A. D. Chien,  K. D. Closser,  V. Cofer-Shabica,  
 S. Dasgupta,  Jia Deng,  M. de Wergifosse,  M. Diedenhofen,  Hainam Do,  
 S. Ehlert,  Po-Tung Fang,  S. Fatehi,  Qingguo Feng,  J. Gayvert,  
 Qinghui Ge,  G. Gidofalvi,  M. Goldey,  J. Gomes,  C. Gonzalez-Espinoza,  
 S. Gulania,  A. Gunina,  M. W. D. Hanson-Heine,  P. H. P. Harbach,  
 A. W. Hauser,  M. F. Herbst,  M. Hernandez Vera,  M. Hodecker,  
 Z. C. Holden,  S. Houck,  Xunkun Huang,  Kerwin Hui,  B. C. Huynh,  
 M. Ivanov,  Hyunjun Ji,  Hanjie Jiang,  B. Kaduk,  S. Kaehler,  
 K. Khistyaev,  Jaehoon Kim,  P. Klunzinger,  Z. Koczor-Benda,  
 Joong Hoon Koh,  D. Kosenkov,  L. Koulias,  T. Kowalczyk,  C. M. Krauter,  
 K. Kue,  A. Kunitsa,  T. Kus,  A. Landau,  K. V. Lawler,  D. Lefrancois,  
 S. Lehtola,  Rain Li,  Yi-Pei Li,  Jiashu Liang,  M. Liebenthal,  
 Hung-Hsuan Lin,  You-Sheng Lin,  Fenglai Liu,  Kuan-Yu Liu,  
 M. Loipersberger,  A. Luenser,  A. Manjanath,  P. Manohar,  E. Mansoor,  
 S. F. Manzer,  Shan-Ping Mao,  A. V. Marenich,  T. Markovich,  S. Mason,  
 S. A. Maurer,  P. F. McLaughlin,  M. F. S. J. Menger,  J.-M. Mewes,  
 S. A. Mewes,  P. Morgante,  J. W. Mullinax,  T. S. Nguyen-Beck,  
 K. J. Oosterbaan,  G. Paran,  Alexander C. Paul,  Suranjan K. Paul,  
 F. Pavosevic,  Zheng Pei,  S. Prager,  E. I. Proynov,  E. Ramos,  B. Rana,  
 A. E. Rask,  A. Rettig,  R. M. Richard,  F. Rob,  E. Rossomme,  T. Scheele,  
 M. Scheurer,  M. Schneider,  N. Sergueev,  S. M. Sharada,  W. Skomorowski,  
 D. W. Small,  C. J. Stein,  Yu-Chuan Su,  E. J. Sundstrom,  Zhen Tao,  
 J. Thirman,  T. Tsuchimochi,  N. M. Tubman,  S. P. Veccham,  O. Vydrov,  
 J. Wenzel,  J. Witte,  A. Yamada,  Kun Yao,  S. Yeganeh,  S. R. Yost,  
 A. Zech,  Igor Ying Zhang,  Xing Zhang,  Yu Zhang,  D. Zuev,  
 A. Aspuru-Guzik,  A. T. Bell,  N. A. Besley,  K. B. Bravaya,  B. R. Brooks,  
 D. Casanova,  Jeng-Da Chai,  S. Coriani,  C. J. Cramer,  
 A. E. DePrince, III,  R. A. DiStasio Jr.,  A. Dreuw,  B. D. Dunietz,  
 T. R. Furlani,  W. A. Goddard III,  S. Grimme,  S. Hammes-Schiffer,  
 T. Head-Gordon,  W. J. Hehre,  Chao-Ping Hsu,  T.-C. Jagau,  Yousung Jung,  
 A. Klamt,  Jing Kong,  D. S. Lambrecht,  WanZhen Liang,  N. J. Mayhall,  
 C. W. McCurdy,  J. B. Neaton,  C. Ochsenfeld,  J. A. Parkhill,  R. Peverati,  
 V. A. Rassolov,  Yihan Shao,  L. V. Slipchenko,  T. Stauch,  R. P. Steele,  
 J. E. Subotnik,  A. J. W. Thom,  A. Tkatchenko,  D. G. Truhlar,  
 T. Van Voorhis,  T. A. Wesolowski,  K. B. Whaley,  H. L. Woodcock III,  
 P. M. Zimmerman,  S. Faraji,  P. M. W. Gill,  M. Head-Gordon,  
 J. M. Herbert,  A. I. Krylov

 Contributors to earlier versions of Q-Chem not listed above: 
 R. D. Adamson,  B. Austin,  R. Baer,  J. Baker,  G. J. O. Beran,  
 K. Brandhorst,  S. T. Brown,  E. F. C. Byrd,  A. K. Chakraborty,  
 G. K. L. Chan,  Chun-Min Chang,  Yunqing Chen,  C.-L. Cheng,  
 Siu Hung Chien,  D. M. Chipman,  D. L. Crittenden,  H. Dachsel,  
 R. J. Doerksen,  A. D. Dutoi,  R. G. Edgar,  J. Fosso-Tande,  
 L. Fusti-Molnar,  D. Ghosh,  A. Ghysels,  A. Golubeva-Zadorozhnaya,  
 J. Gonthier,  M. S. Gordon,  S. R. Gwaltney,  G. Hawkins,  J. E. Herr,  
 A. Heyden,  S. Hirata,  E. G. Hohenstein,  G. Kedziora,  F. J. Keil,  
 C. Kelley,  Jihan Kim,  R. A. King,  R. Z. Khaliullin,  P. P. Korambath,  
 W. Kurlancheek,  A. Laurent,  A. M. Lee,  M. S. Lee,  S. V. Levchenko,  
 Ching Yeh Lin,  D. Liotard,  E. Livshits,  R. C. Lochan,  I. Lotan,  
 L. A. Martinez-Martinez,  P. E. Maslen,  N. Nair,  D. P. O'Neill,  
 D. Neuhauser,  E. Neuscamman,  C. M. Oana,  R. Olivares-Amaya,  R. Olson,  
 T. M. Perrine,  B. Peters,  P. A. Pieniazek,  A. Prociuk,  Y. M. Rhee,  
 J. Ritchie,  M. A. Rohrdanz,  E. Rosta,  N. J. Russ,  H. F. Schaefer III,  
 M. W. Schmidt,  N. E. Schultz,  S. Sharma,  N. Shenvi,  C. D. Sherrill,  
 A. C. Simmonett,  A. Sodt,  T. Stein,  D. Stuck,  K. S. Thanthiriwatte,  
 V. Vanovschi,  L. Vogt,  Tao Wang,  A. Warshel,  M. A. Watson,  
 C. F. Williams,  Q. Wu,  X. Xu,  Jun Yang,  W. Zhang,  Yan Zhao

 Please cite Q-Chem as follows:
 Y. Shao et al., Mol. Phys. 113, 184-215 (2015)
 DOI: 10.1080/00268976.2014.952696

 Q-Chem 5.4.0 for Intel X86 EM64T Linux

 Parts of Q-Chem use Armadillo 9.800.1 (Horizon Scraper).
 http://arma.sourceforge.net/

 Q-Chem begins on Sun Jul 10 09:54:04 2022  

 Host: 
0

     Scratch files written to ./qchem1508992//
 May1621 |scratch|qcdevops|jenkins|workspace|build_RNUM    
 Processing $rem in /cm/shared/apps/spack/cpu/opt/spack/linux-centos8-zen2/gcc-10.2.0/qchem-5.4-akfmr7b3t57bfs6qan3padb2wnb2i7cl/config/preferences:
 Processing $rem in /home/theleonzhang/.qchemrc:
 Symmetry turned off for PCM/SM12/SMD calculation
 Core orbitals will be frozen

 Checking the input file for inconsistencies... 	...done.

--------------------------------------------------------------
User input:
--------------------------------------------------------------
$molecule
0 1
C	-0.234690	-0.535397	0.019118
C	0.060710	0.276103	1.118518
C	0.534010	1.576503	0.795818
H	-0.065390	-0.070397	2.155218
C	0.609510	1.783903	-0.593382
S	0.087610	0.350203	-1.467682
C	0.906110	2.598703	1.833718
H	0.760510	2.198703	2.855818
H	0.291310	3.518703	1.745318
H	1.968510	2.908303	1.745318
C	-0.234690	-1.976097	0.019118
H	0.459610	-1.975797	-0.808182
H	0.392810	-2.679897	0.545718
H	-0.960290	-2.494997	-0.589682
H	0.934210	2.675903	-1.142482
$end

$rem
JOBTYPE		SP
EXCHANGE	HF
CORRELATION	pRIMP2
BASIS		cc-pvtz
METHOD		rimp2
AUX_BASIS	rimp2-cc-pvtz
SOLVENT_METHOD	PCM
PURECART	11111
SYMMETRY	false
MEM_TOTAL	110000
SCF_CONVERGENCE = 6
THRESH=10
$end



$solvent
dielectric 4.90
$end
--------------------------------------------------------------
 ----------------------------------------------------------------
             Standard Nuclear Orientation (Angstroms)
    I     Atom           X                Y                Z
 ----------------------------------------------------------------
    1      C      -0.2346900000    -0.5353970000     0.0191180000
    2      C       0.0607100000     0.2761030000     1.1185180000
    3      C       0.5340100000     1.5765030000     0.7958180000
    4      H      -0.0653900000    -0.0703970000     2.1552180000
    5      C       0.6095100000     1.7839030000    -0.5933820000
    6      S       0.0876100000     0.3502030000    -1.4676820000
    7      C       0.9061100000     2.5987030000     1.8337180000
    8      H       0.7605100000     2.1987030000     2.8558180000
    9      H       0.2913100000     3.5187030000     1.7453180000
   10      H       1.9685100000     2.9083030000     1.7453180000
   11      C      -0.2346900000    -1.9760970000     0.0191180000
   12      H       0.4596100000    -1.9757970000    -0.8081820000
   13      H       0.3928100000    -2.6798970000     0.5457180000
   14      H      -0.9602900000    -2.4949970000    -0.5896820000
   15      H       0.9342100000     2.6759030000    -1.1424820000
 ----------------------------------------------------------------
 Nuclear Repulsion Energy =         345.53325861 hartrees
 There are       30 alpha and       30 beta electrons

 Q-Chem warning in module forms1/BasisType.C, line 2236:

 You are not using the predefined 5D/6D in this basis set.

 Requested basis set is cc-pVTZ
 There are 120 shells and 326 basis functions

 Total QAlloc Memory Limit 110000 MB
 Mega-Array Size       188 MB
 MEM_STATIC part       192 MB
 Discretize the solute cavity surface with Lebedev spheres
	Using 110 Lebedev grid points for each H atom
	Using 194 Lebedev grid points for other atoms
	Atomic van der Waals radii will be scaled by 1.20
 Remove points where switching function is < 1.0e-08
 Keep 1064 surface tesserae and discard 1174 interior tesserae
 Molecular Surface Area = 158.153 Angst**2

                       Distance Matrix (Angstroms)
             C (  1)   C (  2)   C (  3)   H (  4)   C (  5)   S (  6)
   C (  2)  1.398025
   C (  3)  2.377874  1.420981
   H (  4)  2.192672  1.100323  2.218001
   C (  5)  2.543026  2.346326  1.406624  3.383596
   S (  6)  1.760324  2.587401  2.612760  3.650441  1.758487
   C (  7)  3.796944  2.573069  1.503525  2.858543  2.577341  4.077369
   H (  8)  4.063569  2.684087  2.163801  2.514312  3.477332  4.749989
   H (  9)  4.437586  3.310666  2.175453  3.629999  2.929215  4.517107
   H ( 10)  4.437671  3.310749  2.175553  3.630072  2.929279  4.517193
   C ( 11)  1.440700  2.523558  3.716871  2.867626  3.901978  2.779590
   H ( 12)  1.800342  2.990376  3.898357  3.562010  3.768813  2.446140
   H ( 13)  2.295636  3.029245  4.266079  3.099988  4.611943  3.650813
   H ( 14)  2.176503  3.411654  4.552983  3.770147  4.557770  3.156603
   H ( 15)  3.609444  3.410889  2.264033  4.406381  1.096633  2.496271
             C (  7)   H (  8)   H (  9)   H ( 10)   C ( 11)   H ( 12)
   H (  8)  1.107198
   H (  9)  1.110042  1.787669
   H ( 10)  1.110117  1.787738  1.784822
   C ( 11)  5.052029  5.144535  5.783534  5.629496
   H ( 12)  5.301419  5.562543  6.061206  5.714156  1.080036
   H ( 13)  5.457659  5.410407  6.314427  5.928731  1.079999  1.527503
   H ( 14)  5.941557  6.071527  6.571401  6.574629  1.079995  1.527556
   H ( 15)  2.977334  4.030421  3.076202  3.076227  4.935255  4.687784
             H ( 13)   H ( 14)
   H ( 14)  1.776007
   H ( 15)  5.641607  5.534702
 
 Requested basis set is rimp2-cc-pVTZ
 There are 250 shells and 848 basis functions
 A cutoff of  1.0D-10 yielded   6189 shell pairs
 There are     45353 function pairs (     58319 Cartesian)
 Smallest overlap matrix eigenvalue = 1.07E-04

 Scale SEOQF with 1.000000e-01/1.000000e-01/1.000000e-01

 Standard Electronic Orientation quadrupole field applied
 Nucleus-field energy     =     0.0000000019 hartrees
 Guess from superposition of atomic densities
 Warning:  Energy on first SCF cycle will be non-variational
 SAD guess density has 60.000000 electrons

 -----------------------------------------------------------------------
  General SCF calculation program by
  Eric Jon Sundstrom, Paul Horn, Yuezhi Mao, Dmitri Zuev, Alec White,
  David Stuck, Shaama M.S., Shane Yost, Joonho Lee, David Small,
  Daniel Levine, Susi Lehtola, Hugh Burton, Evgeny Epifanovsky,
  Bang C. Huynh
 -----------------------------------------------------------------------
 Hartree-Fock
 A restricted SCF calculation will be
 performed using DIIS
 SCF converges when DIIS error is below 1.0e-06
 ---------------------------------------
  Cycle       Energy         DIIS error
 ---------------------------------------
    1    -632.1184424081      2.92e-02  
    2    -629.3333934779      1.94e-03  
    3    -629.4038702624      6.85e-04  
    4    -629.4114315703      3.48e-04  
    5    -629.4135725939      6.43e-05  
    6    -629.4137121401      2.66e-05  
    7    -629.4137481097      1.18e-05  
    8    -629.4137582467      5.15e-06  
    9    -629.4137597971      1.77e-06  
   10    -629.4137599977      6.42e-07  Convergence criterion met
 ---------------------------------------
 SCF time:   CPU 144.62s  wall 146.00s 

************** Final PCM Free Energy Summary **************
 G_electrostatic  =      -0.00518970 hartree =      -3.25658854 kcal/mol
 G_cavitation     =       0.00000000 hartree =       0.00000000 kcal/mol
 G_dispersion     =       0.00000000 hartree =       0.00000000 kcal/mol
 G_repulsion      =       0.00000000 hartree =       0.00000000 kcal/mol
 --------------------------------------------------
 Non-electrostatic Free Energy =       0.00000000 hartree =       0.00000000 kcal/mol
 Total                         =      -0.00518970 hartree =      -3.25658854 kcal/mol
 --------------------------------------------------
 SCF Energy (H0 + V/2)                       =    -629.41376000 
 Solute Internal Energy (H0)                 =    -629.40857029 
 Total Free Energy (H0 + V/2 + non-elec)     =    -629.41376000 hartree
                                             = -394963.09557625 kcal/mol
***********************************************************

 SCF   energy in the final basis set =     -629.4137599977
 Total energy in the final basis set =     -629.4137599977


 --------------------------------------------------------------
  Generalized many-body perturbation theory program
  by Joonho Lee, Fazle Rob, Xintian Feng, Evgeny Epifanovsky

 No regularization used 
 (reg. param. = 0.0000e+00)
  (P|Q)^-1/2 Time:  CPU 0.48 s  wall 0.49 s

 In RI-MP2 calculation: 
 # of frozen core orbitals: 11

 Components of the RIMP2 correlation energy:
        aaaa    correlation energy =        -0.1455301371 a.u.
        abab    correlation energy =        -0.8870366324 a.u.
        bbbb    correlation energy =        -0.1455301371 a.u.
        non-Brillouin singles      =        -0.0000000000 a.u.
        total same-spin energy     =        -0.2910602742 a.u.
        total opposite-spin energy =        -0.8870366324 a.u.

 Total  RIMP2   correlation energy =        -1.1780969066 a.u.
        RIMP2         total energy =      -630.5918569043 a.u.

 RI-MP2 Energy Time:  CPU 11.05 s  wall 11.09 s
 
 --------------------------------------------------------------
 
                    Orbital Energies (a.u.)
 --------------------------------------------------------------
 
 Alpha MOs
 -- Occupied --
-91.9772 -11.2768 -11.2569 -11.2469 -11.2294 -11.2268 -11.2167  -8.9775
 -6.6585  -6.6579  -6.6573  -1.1623  -1.0559  -0.9950  -0.9451  -0.8811
 -0.7473  -0.7192  -0.6484  -0.5886  -0.5773  -0.5649  -0.5530  -0.5476
 -0.5100  -0.4872  -0.4639  -0.4490  -0.3394  -0.2961
 -- Virtual --
  0.0999   0.1444   0.1515   0.1745   0.1883   0.1898   0.2054   0.2242
  0.2336   0.2447   0.2513   0.2553   0.2912   0.3241   0.3458   0.3511
  0.3790   0.4009   0.4094   0.4273   0.4382   0.4608   0.4695   0.4814
  0.4888   0.4948   0.5177   0.5289   0.5402   0.5576   0.5712   0.5898
  0.5961   0.6051   0.6097   0.6150   0.6274   0.6380   0.6416   0.6497
  0.6573   0.6646   0.6891   0.7121   0.7240   0.7437   0.7685   0.7895
  0.8036   0.8181   0.8408   0.8566   0.8633   0.8944   0.9088   0.9242
  0.9606   0.9662   0.9960   1.0053   1.0208   1.0494   1.0610   1.0687
  1.0828   1.0872   1.1095   1.1473   1.1628   1.1919   1.1949   1.2143
  1.2175   1.2370   1.2494   1.2690   1.2828   1.2934   1.2999   1.3291
  1.3580   1.3868   1.4068   1.4195   1.4244   1.4401   1.4453   1.4753
  1.4891   1.5080   1.5133   1.5327   1.5368   1.5501   1.5733   1.5800
  1.5940   1.6320   1.6443   1.6745   1.6847   1.6988   1.7160   1.7344
  1.7501   1.7922   1.7994   1.8331   1.8870   1.9257   1.9418   1.9694
  1.9924   2.0438   2.1031   2.1301   2.1815   2.1906   2.2156   2.2168
  2.2666   2.2813   2.3676   2.4248   2.4690   2.4811   2.5051   2.5469
  2.5680   2.5858   2.6344   2.6550   2.6680   2.6966   2.7009   2.7229
  2.7361   2.7580   2.7765   2.7903   2.8151   2.8446   2.8496   2.8908
  2.9200   2.9300   2.9503   2.9732   3.0169   3.0358   3.0485   3.0659
  3.0769   3.1003   3.1120   3.1368   3.1564   3.1634   3.1706   3.2001
  3.2154   3.2494   3.2753   3.2801   3.2853   3.2935   3.3154   3.3310
  3.3528   3.3617   3.3755   3.3944   3.3978   3.4172   3.4292   3.4463
  3.4485   3.4596   3.4782   3.4954   3.5166   3.5221   3.5429   3.5668
  3.5889   3.5965   3.6129   3.6267   3.6374   3.6399   3.6762   3.6856
  3.6984   3.7047   3.7234   3.7370   3.7575   3.7706   3.7864   3.8047
  3.8173   3.8324   3.8528   3.8784   3.8996   3.9176   3.9262   3.9461
  3.9666   3.9930   4.0123   4.0278   4.0379   4.0653   4.0919   4.1021
  4.1126   4.1446   4.1551   4.1906   4.2190   4.2249   4.2511   4.2544
  4.2702   4.2900   4.3278   4.3418   4.3442   4.3470   4.3869   4.4033
  4.4214   4.4316   4.4384   4.4713   4.4738   4.5106   4.5395   4.5921
  4.5996   4.6042   4.6333   4.6665   4.7155   4.7396   4.7654   4.7809
  4.7986   4.8111   4.8452   4.8890   4.9034   4.9458   5.0577   5.0879
  5.1045   5.1574   5.1819   5.1966   5.2190   5.2575   5.2878   5.3241
  5.3678   5.4066   5.4186   5.4443   5.4817   5.5120   5.5526   5.5670
  5.5942   5.6183   5.6245   5.6602   5.7014   5.8160   5.8364   5.8646
  5.9498   5.9610   6.0343   6.1299   6.2274   6.2499   6.2935   6.3593
  6.4301   6.5757   9.2023  11.3942  12.8972  13.7222  14.1906  14.5144
 --------------------------------------------------------------
 
          Ground-State Mulliken Net Atomic Charges

     Atom                 Charge (a.u.)
  ----------------------------------------
      1 C                     0.050040
      2 C                    -0.299862
      3 C                     0.054178
      4 H                     0.179837
      5 C                    -0.259927
      6 S                    -0.004642
      7 C                    -0.271785
      8 H                     0.101636
      9 H                     0.107460
     10 H                     0.106776
     11 C                    -0.372721
     12 H                     0.129060
     13 H                     0.157312
     14 H                     0.128531
     15 H                     0.194106
  ----------------------------------------
  Sum of atomic charges =     0.000000

 -----------------------------------------------------------------
                    Cartesian Multipole Moments
 -----------------------------------------------------------------
    Charge (ESU x 10^10)
                -0.0000
    Dipole Moment (Debye)
         X       0.9434      Y      -0.2071      Z       0.9832
       Tot       1.3783
    Quadrupole Moments (Debye-Ang)
        XX     -53.2282     XY       1.8181     YY     -43.2207
        XZ       0.4319     YZ       1.1923     ZZ     -48.6824
    Octopole Moments (Debye-Ang^2)
       XXX     -37.3212    XXY     -27.0052    XYY      -3.5862
       YYY     -75.8184    XXZ      -2.2718    XYZ      -2.3827
       YYZ      -5.9631    XZZ     -10.5591    YZZ     -22.6142
       ZZZ       2.1589
    Hexadecapole Moments (Debye-Ang^3)
      XXXX    -145.1630   XXXY    -101.4363   XXYY    -153.7352
      XYYY     -93.9879   YYYY    -751.5394   XXXZ     -32.0757
      XXYZ     -30.2531   XYYZ     -10.8720   YYYZ     -97.3874
      XXZZ    -110.0623   XYZZ     -27.5802   YYZZ    -204.8565
      XZZZ     -36.2395   YZZZ     -97.6548   ZZZZ    -482.9484
 -----------------------------------------------------------------
 Total job time:  158.49s(wall), 156.04s(cpu) 
 Sun Jul 10 09:56:43 2022

        *************************************************************
        *                                                           *
        *  Thank you very much for using Q-Chem.  Have a nice day.  *
        *                                                           *
        *************************************************************


remove work dirs ./qchem1508992.0 -- ./qchem1508992.-1
rm -rf ./qchem1508992
You are running Q-Chem version: 5.4.0

#
# job setting
#
local host:  exp-13-53
current dir: /expanse/lustre/scratch/theleonzhang/temp_project/Hydrogenated_Impropers_Test
input file:  Methylthiophene_Phi_20_Theta_130_Methylthiophene_Hydrogenated_Improper_Alternate.qcin
output file: 
nprocs     : 0
nthreads   : 1
#
# qchem installation setting
#
QC:          /cm/shared/apps/spack/cpu/opt/spack/linux-centos8-zen2/gcc-10.2.0/qchem-5.4-akfmr7b3t57bfs6qan3padb2wnb2i7cl
QCAUX:       /cm/shared/apps/spack/cpu/opt/spack/linux-centos8-zen2/gcc-10.2.0/qchem-5.4-akfmr7b3t57bfs6qan3padb2wnb2i7cl/qcaux
QCPROG:      /cm/shared/apps/spack/cpu/opt/spack/linux-centos8-zen2/gcc-10.2.0/qchem-5.4-akfmr7b3t57bfs6qan3padb2wnb2i7cl/exe/qcprog.exe_s
QCPROG_S:    /cm/shared/apps/spack/cpu/opt/spack/linux-centos8-zen2/gcc-10.2.0/qchem-5.4-akfmr7b3t57bfs6qan3padb2wnb2i7cl/exe/qcprog.exe_s
PARALLEL:    -DSERIAL
QCMPI:       mpich
#
# qchem directory setting
#
qcrun:       qchem756340
QCSCRATCH:   .
QCLOCALSCR:  
QCTMPDIR:    .
QCFILEPREF:  ./qchem756340
QCSAVEDIR:   
workdirs:    ./qchem756340
workdir0:    ./qchem756340
partmpdirs =  
#
# parallel setting
#
QCRSH:           ssh
QCMPI:           mpich
QCMPIRUN:        /cm/shared/apps/spack/cpu/opt/spack/linux-centos8-zen2/gcc-10.2.0/qchem-5.4-akfmr7b3t57bfs6qan3padb2wnb2i7cl/bin/mpi/mpirun_qchem
QCMACHINEFILE:   ./qchem756340/hostfile

#
# env setting
#
exported envs:   QC QCAUX QCSCRATCH QCRUNNAME QCFILEPREF QCPROG QCPROG_S GUIFILE

Running Job 1 of 1 Methylthiophene_Phi_20_Theta_130_Methylthiophene_Hydrogenated_Improper_Alternate.qcin
qchem Methylthiophene_Phi_20_Theta_130_Methylthiophene_Hydrogenated_Improper_Alternate.qcin_756340.0 ./qchem756340/ 0
/cm/shared/apps/spack/cpu/opt/spack/linux-centos8-zen2/gcc-10.2.0/qchem-5.4-akfmr7b3t57bfs6qan3padb2wnb2i7cl/exe/qcprog.exe_s Methylthiophene_Phi_20_Theta_130_Methylthiophene_Hydrogenated_Improper_Alternate.qcin_756340.0 ./qchem756340/
                  Welcome to Q-Chem
     A Quantum Leap Into The Future Of Chemistry


 Q-Chem 5.4, Q-Chem, Inc., Pleasanton, CA (2021)

 License issued to: University of California, San Diego (site)

 E. Epifanovsky,  A. T. B. Gilbert,  Xintian Feng,  Joonho Lee,  Yuezhi Mao,  
 N. Mardirossian,  P. Pokhilko,  A. White,  M. Wormit,  M. P. Coons,  
 A. L. Dempwolff,  Zhengting Gan,  D. Hait,  P. R. Horn,  L. D. Jacobson,  
 I. Kaliman,  J. Kussmann,  A. W. Lange,  Ka Un Lao,  D. S. Levine,  Jie Liu,  
 S. C. McKenzie,  A. F. Morrison,  K. Nanda,  F. Plasser,  D. R. Rehn,  
 M. L. Vidal,  Zhi-Qiang You,  Ying Zhu,  B. Alam,  B. Albrecht,  
 A. Aldossary,  E. Alguire,  J. H. Andersen,  D. Barton,  K. Begam,  A. Behn,  
 Y. A. Bernard,  E. J. Berquist,  H. Burton,  A. Carreras,  K. Carter-Fenk,  
 R. Chakraborty,  A. D. Chien,  K. D. Closser,  V. Cofer-Shabica,  
 S. Dasgupta,  Jia Deng,  M. de Wergifosse,  M. Diedenhofen,  Hainam Do,  
 S. Ehlert,  Po-Tung Fang,  S. Fatehi,  Qingguo Feng,  J. Gayvert,  
 Qinghui Ge,  G. Gidofalvi,  M. Goldey,  J. Gomes,  C. Gonzalez-Espinoza,  
 S. Gulania,  A. Gunina,  M. W. D. Hanson-Heine,  P. H. P. Harbach,  
 A. W. Hauser,  M. F. Herbst,  M. Hernandez Vera,  M. Hodecker,  
 Z. C. Holden,  S. Houck,  Xunkun Huang,  Kerwin Hui,  B. C. Huynh,  
 M. Ivanov,  Hyunjun Ji,  Hanjie Jiang,  B. Kaduk,  S. Kaehler,  
 K. Khistyaev,  Jaehoon Kim,  P. Klunzinger,  Z. Koczor-Benda,  
 Joong Hoon Koh,  D. Kosenkov,  L. Koulias,  T. Kowalczyk,  C. M. Krauter,  
 K. Kue,  A. Kunitsa,  T. Kus,  A. Landau,  K. V. Lawler,  D. Lefrancois,  
 S. Lehtola,  Rain Li,  Yi-Pei Li,  Jiashu Liang,  M. Liebenthal,  
 Hung-Hsuan Lin,  You-Sheng Lin,  Fenglai Liu,  Kuan-Yu Liu,  
 M. Loipersberger,  A. Luenser,  A. Manjanath,  P. Manohar,  E. Mansoor,  
 S. F. Manzer,  Shan-Ping Mao,  A. V. Marenich,  T. Markovich,  S. Mason,  
 S. A. Maurer,  P. F. McLaughlin,  M. F. S. J. Menger,  J.-M. Mewes,  
 S. A. Mewes,  P. Morgante,  J. W. Mullinax,  T. S. Nguyen-Beck,  
 K. J. Oosterbaan,  G. Paran,  Alexander C. Paul,  Suranjan K. Paul,  
 F. Pavosevic,  Zheng Pei,  S. Prager,  E. I. Proynov,  E. Ramos,  B. Rana,  
 A. E. Rask,  A. Rettig,  R. M. Richard,  F. Rob,  E. Rossomme,  T. Scheele,  
 M. Scheurer,  M. Schneider,  N. Sergueev,  S. M. Sharada,  W. Skomorowski,  
 D. W. Small,  C. J. Stein,  Yu-Chuan Su,  E. J. Sundstrom,  Zhen Tao,  
 J. Thirman,  T. Tsuchimochi,  N. M. Tubman,  S. P. Veccham,  O. Vydrov,  
 J. Wenzel,  J. Witte,  A. Yamada,  Kun Yao,  S. Yeganeh,  S. R. Yost,  
 A. Zech,  Igor Ying Zhang,  Xing Zhang,  Yu Zhang,  D. Zuev,  
 A. Aspuru-Guzik,  A. T. Bell,  N. A. Besley,  K. B. Bravaya,  B. R. Brooks,  
 D. Casanova,  Jeng-Da Chai,  S. Coriani,  C. J. Cramer,  
 A. E. DePrince, III,  R. A. DiStasio Jr.,  A. Dreuw,  B. D. Dunietz,  
 T. R. Furlani,  W. A. Goddard III,  S. Grimme,  S. Hammes-Schiffer,  
 T. Head-Gordon,  W. J. Hehre,  Chao-Ping Hsu,  T.-C. Jagau,  Yousung Jung,  
 A. Klamt,  Jing Kong,  D. S. Lambrecht,  WanZhen Liang,  N. J. Mayhall,  
 C. W. McCurdy,  J. B. Neaton,  C. Ochsenfeld,  J. A. Parkhill,  R. Peverati,  
 V. A. Rassolov,  Yihan Shao,  L. V. Slipchenko,  T. Stauch,  R. P. Steele,  
 J. E. Subotnik,  A. J. W. Thom,  A. Tkatchenko,  D. G. Truhlar,  
 T. Van Voorhis,  T. A. Wesolowski,  K. B. Whaley,  H. L. Woodcock III,  
 P. M. Zimmerman,  S. Faraji,  P. M. W. Gill,  M. Head-Gordon,  
 J. M. Herbert,  A. I. Krylov

 Contributors to earlier versions of Q-Chem not listed above: 
 R. D. Adamson,  B. Austin,  R. Baer,  J. Baker,  G. J. O. Beran,  
 K. Brandhorst,  S. T. Brown,  E. F. C. Byrd,  A. K. Chakraborty,  
 G. K. L. Chan,  Chun-Min Chang,  Yunqing Chen,  C.-L. Cheng,  
 Siu Hung Chien,  D. M. Chipman,  D. L. Crittenden,  H. Dachsel,  
 R. J. Doerksen,  A. D. Dutoi,  R. G. Edgar,  J. Fosso-Tande,  
 L. Fusti-Molnar,  D. Ghosh,  A. Ghysels,  A. Golubeva-Zadorozhnaya,  
 J. Gonthier,  M. S. Gordon,  S. R. Gwaltney,  G. Hawkins,  J. E. Herr,  
 A. Heyden,  S. Hirata,  E. G. Hohenstein,  G. Kedziora,  F. J. Keil,  
 C. Kelley,  Jihan Kim,  R. A. King,  R. Z. Khaliullin,  P. P. Korambath,  
 W. Kurlancheek,  A. Laurent,  A. M. Lee,  M. S. Lee,  S. V. Levchenko,  
 Ching Yeh Lin,  D. Liotard,  E. Livshits,  R. C. Lochan,  I. Lotan,  
 L. A. Martinez-Martinez,  P. E. Maslen,  N. Nair,  D. P. O'Neill,  
 D. Neuhauser,  E. Neuscamman,  C. M. Oana,  R. Olivares-Amaya,  R. Olson,  
 T. M. Perrine,  B. Peters,  P. A. Pieniazek,  A. Prociuk,  Y. M. Rhee,  
 J. Ritchie,  M. A. Rohrdanz,  E. Rosta,  N. J. Russ,  H. F. Schaefer III,  
 M. W. Schmidt,  N. E. Schultz,  S. Sharma,  N. Shenvi,  C. D. Sherrill,  
 A. C. Simmonett,  A. Sodt,  T. Stein,  D. Stuck,  K. S. Thanthiriwatte,  
 V. Vanovschi,  L. Vogt,  Tao Wang,  A. Warshel,  M. A. Watson,  
 C. F. Williams,  Q. Wu,  X. Xu,  Jun Yang,  W. Zhang,  Yan Zhao

 Please cite Q-Chem as follows:
 Y. Shao et al., Mol. Phys. 113, 184-215 (2015)
 DOI: 10.1080/00268976.2014.952696

 Q-Chem 5.4.0 for Intel X86 EM64T Linux

 Parts of Q-Chem use Armadillo 9.800.1 (Horizon Scraper).
 http://arma.sourceforge.net/

 Q-Chem begins on Sun Jul 10 10:31:35 2022  

 Host: 
0

     Scratch files written to ./qchem756340//
 May1621 |scratch|qcdevops|jenkins|workspace|build_RNUM    
 Processing $rem in /cm/shared/apps/spack/cpu/opt/spack/linux-centos8-zen2/gcc-10.2.0/qchem-5.4-akfmr7b3t57bfs6qan3padb2wnb2i7cl/config/preferences:
 Processing $rem in /home/theleonzhang/.qchemrc:
 Symmetry turned off for PCM/SM12/SMD calculation
 Core orbitals will be frozen

 Checking the input file for inconsistencies... 	...done.

--------------------------------------------------------------
User input:
--------------------------------------------------------------
$molecule
0 1
C	-0.234690	-0.535397	0.019118
C	0.060710	0.276103	1.118518
C	0.534010	1.576503	0.795818
H	-0.065390	-0.070397	2.155218
C	0.609510	1.783903	-0.593382
S	0.087610	0.350203	-1.467682
C	0.906110	2.598703	1.833718
H	0.760510	2.198703	2.855818
H	0.291310	3.518703	1.745318
H	1.968510	2.908303	1.745318
C	-0.234690	-1.976097	0.019118
H	0.459610	-1.975797	-0.808182
H	0.392810	-2.679897	0.545718
H	-0.960290	-2.494997	-0.589682
H	0.934210	2.675903	-1.142482
$end

$rem
JOBTYPE		SP
EXCHANGE	HF
CORRELATION	pRIMP2
BASIS		cc-pvtz
METHOD		rimp2
AUX_BASIS	rimp2-cc-pvtz
SOLVENT_METHOD	PCM
PURECART	11111
SYMMETRY	false
MEM_TOTAL	110000
SCF_CONVERGENCE = 6
THRESH=10
$end



$solvent
dielectric 4.90
$end
--------------------------------------------------------------
 ----------------------------------------------------------------
             Standard Nuclear Orientation (Angstroms)
    I     Atom           X                Y                Z
 ----------------------------------------------------------------
    1      C      -0.2346900000    -0.5353970000     0.0191180000
    2      C       0.0607100000     0.2761030000     1.1185180000
    3      C       0.5340100000     1.5765030000     0.7958180000
    4      H      -0.0653900000    -0.0703970000     2.1552180000
    5      C       0.6095100000     1.7839030000    -0.5933820000
    6      S       0.0876100000     0.3502030000    -1.4676820000
    7      C       0.9061100000     2.5987030000     1.8337180000
    8      H       0.7605100000     2.1987030000     2.8558180000
    9      H       0.2913100000     3.5187030000     1.7453180000
   10      H       1.9685100000     2.9083030000     1.7453180000
   11      C      -0.2346900000    -1.9760970000     0.0191180000
   12      H       0.4596100000    -1.9757970000    -0.8081820000
   13      H       0.3928100000    -2.6798970000     0.5457180000
   14      H      -0.9602900000    -2.4949970000    -0.5896820000
   15      H       0.9342100000     2.6759030000    -1.1424820000
 ----------------------------------------------------------------
 Nuclear Repulsion Energy =         345.53325861 hartrees
 There are       30 alpha and       30 beta electrons

 Q-Chem warning in module forms1/BasisType.C, line 2236:

 You are not using the predefined 5D/6D in this basis set.

 Requested basis set is cc-pVTZ
 There are 120 shells and 326 basis functions

 Total QAlloc Memory Limit 110000 MB
 Mega-Array Size       188 MB
 MEM_STATIC part       192 MB
 Discretize the solute cavity surface with Lebedev spheres
	Using 110 Lebedev grid points for each H atom
	Using 194 Lebedev grid points for other atoms
	Atomic van der Waals radii will be scaled by 1.20
 Remove points where switching function is < 1.0e-08
 Keep 1064 surface tesserae and discard 1174 interior tesserae
 Molecular Surface Area = 158.153 Angst**2

                       Distance Matrix (Angstroms)
             C (  1)   C (  2)   C (  3)   H (  4)   C (  5)   S (  6)
   C (  2)  1.398025
   C (  3)  2.377874  1.420981
   H (  4)  2.192672  1.100323  2.218001
   C (  5)  2.543026  2.346326  1.406624  3.383596
   S (  6)  1.760324  2.587401  2.612760  3.650441  1.758487
   C (  7)  3.796944  2.573069  1.503525  2.858543  2.577341  4.077369
   H (  8)  4.063569  2.684087  2.163801  2.514312  3.477332  4.749989
   H (  9)  4.437586  3.310666  2.175453  3.629999  2.929215  4.517107
   H ( 10)  4.437671  3.310749  2.175553  3.630072  2.929279  4.517193
   C ( 11)  1.440700  2.523558  3.716871  2.867626  3.901978  2.779590
   H ( 12)  1.800342  2.990376  3.898357  3.562010  3.768813  2.446140
   H ( 13)  2.295636  3.029245  4.266079  3.099988  4.611943  3.650813
   H ( 14)  2.176503  3.411654  4.552983  3.770147  4.557770  3.156603
   H ( 15)  3.609444  3.410889  2.264033  4.406381  1.096633  2.496271
             C (  7)   H (  8)   H (  9)   H ( 10)   C ( 11)   H ( 12)
   H (  8)  1.107198
   H (  9)  1.110042  1.787669
   H ( 10)  1.110117  1.787738  1.784822
   C ( 11)  5.052029  5.144535  5.783534  5.629496
   H ( 12)  5.301419  5.562543  6.061206  5.714156  1.080036
   H ( 13)  5.457659  5.410407  6.314427  5.928731  1.079999  1.527503
   H ( 14)  5.941557  6.071527  6.571401  6.574629  1.079995  1.527556
   H ( 15)  2.977334  4.030421  3.076202  3.076227  4.935255  4.687784
             H ( 13)   H ( 14)
   H ( 14)  1.776007
   H ( 15)  5.641607  5.534702
 
 Requested basis set is rimp2-cc-pVTZ
 There are 250 shells and 848 basis functions
 A cutoff of  1.0D-10 yielded   6189 shell pairs
 There are     45353 function pairs (     58319 Cartesian)
 Smallest overlap matrix eigenvalue = 1.07E-04

 Scale SEOQF with 1.000000e-01/1.000000e-01/1.000000e-01

 Standard Electronic Orientation quadrupole field applied
 Nucleus-field energy     =     0.0000000019 hartrees
 Guess from superposition of atomic densities
 Warning:  Energy on first SCF cycle will be non-variational
 SAD guess density has 60.000000 electrons

 -----------------------------------------------------------------------
  General SCF calculation program by
  Eric Jon Sundstrom, Paul Horn, Yuezhi Mao, Dmitri Zuev, Alec White,
  David Stuck, Shaama M.S., Shane Yost, Joonho Lee, David Small,
  Daniel Levine, Susi Lehtola, Hugh Burton, Evgeny Epifanovsky,
  Bang C. Huynh
 -----------------------------------------------------------------------
 Hartree-Fock
 A restricted SCF calculation will be
 performed using DIIS
 SCF converges when DIIS error is below 1.0e-06
 ---------------------------------------
  Cycle       Energy         DIIS error
 ---------------------------------------
    1    -632.1184424081      2.92e-02  
    2    -629.3333934779      1.94e-03  
    3    -629.4038702624      6.85e-04  
    4    -629.4114315703      3.48e-04  
    5    -629.4135725939      6.43e-05  
    6    -629.4137121401      2.66e-05  
    7    -629.4137481097      1.18e-05  
    8    -629.4137582467      5.15e-06  
    9    -629.4137597971      1.77e-06  
   10    -629.4137599977      6.42e-07  Convergence criterion met
 ---------------------------------------
 SCF time:   CPU 144.22s  wall 145.00s 

************** Final PCM Free Energy Summary **************
 G_electrostatic  =      -0.00518970 hartree =      -3.25658854 kcal/mol
 G_cavitation     =       0.00000000 hartree =       0.00000000 kcal/mol
 G_dispersion     =       0.00000000 hartree =       0.00000000 kcal/mol
 G_repulsion      =       0.00000000 hartree =       0.00000000 kcal/mol
 --------------------------------------------------
 Non-electrostatic Free Energy =       0.00000000 hartree =       0.00000000 kcal/mol
 Total                         =      -0.00518970 hartree =      -3.25658854 kcal/mol
 --------------------------------------------------
 SCF Energy (H0 + V/2)                       =    -629.41376000 
 Solute Internal Energy (H0)                 =    -629.40857029 
 Total Free Energy (H0 + V/2 + non-elec)     =    -629.41376000 hartree
                                             = -394963.09557625 kcal/mol
***********************************************************

 SCF   energy in the final basis set =     -629.4137599977
 Total energy in the final basis set =     -629.4137599977


 --------------------------------------------------------------
  Generalized many-body perturbation theory program
  by Joonho Lee, Fazle Rob, Xintian Feng, Evgeny Epifanovsky

 No regularization used 
 (reg. param. = 0.0000e+00)
  (P|Q)^-1/2 Time:  CPU 0.48 s  wall 0.48 s

 In RI-MP2 calculation: 
 # of frozen core orbitals: 11

 Components of the RIMP2 correlation energy:
        aaaa    correlation energy =        -0.1455301371 a.u.
        abab    correlation energy =        -0.8870366324 a.u.
        bbbb    correlation energy =        -0.1455301371 a.u.
        non-Brillouin singles      =        -0.0000000000 a.u.
        total same-spin energy     =        -0.2910602742 a.u.
        total opposite-spin energy =        -0.8870366324 a.u.

 Total  RIMP2   correlation energy =        -1.1780969066 a.u.
        RIMP2         total energy =      -630.5918569043 a.u.

 RI-MP2 Energy Time:  CPU 11.03 s  wall 11.06 s
 
 --------------------------------------------------------------
 
                    Orbital Energies (a.u.)
 --------------------------------------------------------------
 
 Alpha MOs
 -- Occupied --
-91.9772 -11.2768 -11.2569 -11.2469 -11.2294 -11.2268 -11.2167  -8.9775
 -6.6585  -6.6579  -6.6573  -1.1623  -1.0559  -0.9950  -0.9451  -0.8811
 -0.7473  -0.7192  -0.6484  -0.5886  -0.5773  -0.5649  -0.5530  -0.5476
 -0.5100  -0.4872  -0.4639  -0.4490  -0.3394  -0.2961
 -- Virtual --
  0.0999   0.1444   0.1515   0.1745   0.1883   0.1898   0.2054   0.2242
  0.2336   0.2447   0.2513   0.2553   0.2912   0.3241   0.3458   0.3511
  0.3790   0.4009   0.4094   0.4273   0.4382   0.4608   0.4695   0.4814
  0.4888   0.4948   0.5177   0.5289   0.5402   0.5576   0.5712   0.5898
  0.5961   0.6051   0.6097   0.6150   0.6274   0.6380   0.6416   0.6497
  0.6573   0.6646   0.6891   0.7121   0.7240   0.7437   0.7685   0.7895
  0.8036   0.8181   0.8408   0.8566   0.8633   0.8944   0.9088   0.9242
  0.9606   0.9662   0.9960   1.0053   1.0208   1.0494   1.0610   1.0687
  1.0828   1.0872   1.1095   1.1473   1.1628   1.1919   1.1949   1.2143
  1.2175   1.2370   1.2494   1.2690   1.2828   1.2934   1.2999   1.3291
  1.3580   1.3868   1.4068   1.4195   1.4244   1.4401   1.4453   1.4753
  1.4891   1.5080   1.5133   1.5327   1.5368   1.5501   1.5733   1.5800
  1.5940   1.6320   1.6443   1.6745   1.6847   1.6988   1.7160   1.7344
  1.7501   1.7922   1.7994   1.8331   1.8870   1.9257   1.9418   1.9694
  1.9924   2.0438   2.1031   2.1301   2.1815   2.1906   2.2156   2.2168
  2.2666   2.2813   2.3676   2.4248   2.4690   2.4811   2.5051   2.5469
  2.5680   2.5858   2.6344   2.6550   2.6680   2.6966   2.7009   2.7229
  2.7361   2.7580   2.7765   2.7903   2.8151   2.8446   2.8496   2.8908
  2.9200   2.9300   2.9503   2.9732   3.0169   3.0358   3.0485   3.0659
  3.0769   3.1003   3.1120   3.1368   3.1564   3.1634   3.1706   3.2001
  3.2154   3.2494   3.2753   3.2801   3.2853   3.2935   3.3154   3.3310
  3.3528   3.3617   3.3755   3.3944   3.3978   3.4172   3.4292   3.4463
  3.4485   3.4596   3.4782   3.4954   3.5166   3.5221   3.5429   3.5668
  3.5889   3.5965   3.6129   3.6267   3.6374   3.6399   3.6762   3.6856
  3.6984   3.7047   3.7234   3.7370   3.7575   3.7706   3.7864   3.8047
  3.8173   3.8324   3.8528   3.8784   3.8996   3.9176   3.9262   3.9461
  3.9666   3.9930   4.0123   4.0278   4.0379   4.0653   4.0919   4.1021
  4.1126   4.1446   4.1551   4.1906   4.2190   4.2249   4.2511   4.2544
  4.2702   4.2900   4.3278   4.3418   4.3442   4.3470   4.3869   4.4033
  4.4214   4.4316   4.4384   4.4713   4.4738   4.5106   4.5395   4.5921
  4.5996   4.6042   4.6333   4.6665   4.7155   4.7396   4.7654   4.7809
  4.7986   4.8111   4.8452   4.8890   4.9034   4.9458   5.0577   5.0879
  5.1045   5.1574   5.1819   5.1966   5.2190   5.2575   5.2878   5.3241
  5.3678   5.4066   5.4186   5.4443   5.4817   5.5120   5.5526   5.5670
  5.5942   5.6183   5.6245   5.6602   5.7014   5.8160   5.8364   5.8646
  5.9498   5.9610   6.0343   6.1299   6.2274   6.2499   6.2935   6.3593
  6.4301   6.5757   9.2023  11.3942  12.8972  13.7222  14.1906  14.5144
 --------------------------------------------------------------
 
          Ground-State Mulliken Net Atomic Charges

     Atom                 Charge (a.u.)
  ----------------------------------------
      1 C                     0.050040
      2 C                    -0.299862
      3 C                     0.054178
      4 H                     0.179837
      5 C                    -0.259927
      6 S                    -0.004642
      7 C                    -0.271785
      8 H                     0.101636
      9 H                     0.107460
     10 H                     0.106776
     11 C                    -0.372721
     12 H                     0.129060
     13 H                     0.157312
     14 H                     0.128531
     15 H                     0.194106
  ----------------------------------------
  Sum of atomic charges =     0.000000

 -----------------------------------------------------------------
                    Cartesian Multipole Moments
 -----------------------------------------------------------------
    Charge (ESU x 10^10)
                -0.0000
    Dipole Moment (Debye)
         X       0.9434      Y      -0.2071      Z       0.9832
       Tot       1.3783
    Quadrupole Moments (Debye-Ang)
        XX     -53.2282     XY       1.8181     YY     -43.2207
        XZ       0.4319     YZ       1.1923     ZZ     -48.6824
    Octopole Moments (Debye-Ang^2)
       XXX     -37.3212    XXY     -27.0052    XYY      -3.5862
       YYY     -75.8184    XXZ      -2.2718    XYZ      -2.3827
       YYZ      -5.9631    XZZ     -10.5591    YZZ     -22.6142
       ZZZ       2.1589
    Hexadecapole Moments (Debye-Ang^3)
      XXXX    -145.1630   XXXY    -101.4363   XXYY    -153.7352
      XYYY     -93.9879   YYYY    -751.5394   XXXZ     -32.0757
      XXYZ     -30.2531   XYYZ     -10.8720   YYYZ     -97.3874
      XXZZ    -110.0623   XYZZ     -27.5802   YYZZ    -204.8565
      XZZZ     -36.2395   YZZZ     -97.6548   ZZZZ    -482.9484
 -----------------------------------------------------------------
 Total job time:  156.43s(wall), 155.60s(cpu) 
 Sun Jul 10 10:34:12 2022

        *************************************************************
        *                                                           *
        *  Thank you very much for using Q-Chem.  Have a nice day.  *
        *                                                           *
        *************************************************************


remove work dirs ./qchem756340.0 -- ./qchem756340.-1
rm -rf ./qchem756340
