You are running Q-Chem version: 5.4.0

#
# job setting
#
local host:  exp-4-01
current dir: /expanse/lustre/scratch/theleonzhang/temp_project/Hydrogenated_Impropers_Test
input file:  Methylthiophene_Phi_50_Theta_330_Methylthiophene_Hydrogenated_Improper_Alternate.qcin
output file: 
nprocs     : 0
nthreads   : 1
#
# qchem installation setting
#
QC:          /cm/shared/apps/spack/cpu/opt/spack/linux-centos8-zen2/gcc-10.2.0/qchem-5.4-akfmr7b3t57bfs6qan3padb2wnb2i7cl
QCAUX:       /cm/shared/apps/spack/cpu/opt/spack/linux-centos8-zen2/gcc-10.2.0/qchem-5.4-akfmr7b3t57bfs6qan3padb2wnb2i7cl/qcaux
QCPROG:      /cm/shared/apps/spack/cpu/opt/spack/linux-centos8-zen2/gcc-10.2.0/qchem-5.4-akfmr7b3t57bfs6qan3padb2wnb2i7cl/exe/qcprog.exe_s
QCPROG_S:    /cm/shared/apps/spack/cpu/opt/spack/linux-centos8-zen2/gcc-10.2.0/qchem-5.4-akfmr7b3t57bfs6qan3padb2wnb2i7cl/exe/qcprog.exe_s
PARALLEL:    -DSERIAL
QCMPI:       mpich
#
# qchem directory setting
#
qcrun:       qchem4010902
QCSCRATCH:   .
QCLOCALSCR:  
QCTMPDIR:    .
QCFILEPREF:  ./qchem4010902
QCSAVEDIR:   
workdirs:    ./qchem4010902
workdir0:    ./qchem4010902
partmpdirs =  
#
# parallel setting
#
QCRSH:           ssh
QCMPI:           mpich
QCMPIRUN:        /cm/shared/apps/spack/cpu/opt/spack/linux-centos8-zen2/gcc-10.2.0/qchem-5.4-akfmr7b3t57bfs6qan3padb2wnb2i7cl/bin/mpi/mpirun_qchem
QCMACHINEFILE:   ./qchem4010902/hostfile

#
# env setting
#
exported envs:   QC QCAUX QCSCRATCH QCRUNNAME QCFILEPREF QCPROG QCPROG_S GUIFILE

Running Job 1 of 1 Methylthiophene_Phi_50_Theta_330_Methylthiophene_Hydrogenated_Improper_Alternate.qcin
qchem Methylthiophene_Phi_50_Theta_330_Methylthiophene_Hydrogenated_Improper_Alternate.qcin_4010902.0 ./qchem4010902/ 0
/cm/shared/apps/spack/cpu/opt/spack/linux-centos8-zen2/gcc-10.2.0/qchem-5.4-akfmr7b3t57bfs6qan3padb2wnb2i7cl/exe/qcprog.exe_s Methylthiophene_Phi_50_Theta_330_Methylthiophene_Hydrogenated_Improper_Alternate.qcin_4010902.0 ./qchem4010902/
                  Welcome to Q-Chem
     A Quantum Leap Into The Future Of Chemistry


 Q-Chem 5.4, Q-Chem, Inc., Pleasanton, CA (2021)

 License issued to: University of California, San Diego (site)

 E. Epifanovsky,  A. T. B. Gilbert,  Xintian Feng,  Joonho Lee,  Yuezhi Mao,  
 N. Mardirossian,  P. Pokhilko,  A. White,  M. Wormit,  M. P. Coons,  
 A. L. Dempwolff,  Zhengting Gan,  D. Hait,  P. R. Horn,  L. D. Jacobson,  
 I. Kaliman,  J. Kussmann,  A. W. Lange,  Ka Un Lao,  D. S. Levine,  Jie Liu,  
 S. C. McKenzie,  A. F. Morrison,  K. Nanda,  F. Plasser,  D. R. Rehn,  
 M. L. Vidal,  Zhi-Qiang You,  Ying Zhu,  B. Alam,  B. Albrecht,  
 A. Aldossary,  E. Alguire,  J. H. Andersen,  D. Barton,  K. Begam,  A. Behn,  
 Y. A. Bernard,  E. J. Berquist,  H. Burton,  A. Carreras,  K. Carter-Fenk,  
 R. Chakraborty,  A. D. Chien,  K. D. Closser,  V. Cofer-Shabica,  
 S. Dasgupta,  Jia Deng,  M. de Wergifosse,  M. Diedenhofen,  Hainam Do,  
 S. Ehlert,  Po-Tung Fang,  S. Fatehi,  Qingguo Feng,  J. Gayvert,  
 Qinghui Ge,  G. Gidofalvi,  M. Goldey,  J. Gomes,  C. Gonzalez-Espinoza,  
 S. Gulania,  A. Gunina,  M. W. D. Hanson-Heine,  P. H. P. Harbach,  
 A. W. Hauser,  M. F. Herbst,  M. Hernandez Vera,  M. Hodecker,  
 Z. C. Holden,  S. Houck,  Xunkun Huang,  Kerwin Hui,  B. C. Huynh,  
 M. Ivanov,  Hyunjun Ji,  Hanjie Jiang,  B. Kaduk,  S. Kaehler,  
 K. Khistyaev,  Jaehoon Kim,  P. Klunzinger,  Z. Koczor-Benda,  
 Joong Hoon Koh,  D. Kosenkov,  L. Koulias,  T. Kowalczyk,  C. M. Krauter,  
 K. Kue,  A. Kunitsa,  T. Kus,  A. Landau,  K. V. Lawler,  D. Lefrancois,  
 S. Lehtola,  Rain Li,  Yi-Pei Li,  Jiashu Liang,  M. Liebenthal,  
 Hung-Hsuan Lin,  You-Sheng Lin,  Fenglai Liu,  Kuan-Yu Liu,  
 M. Loipersberger,  A. Luenser,  A. Manjanath,  P. Manohar,  E. Mansoor,  
 S. F. Manzer,  Shan-Ping Mao,  A. V. Marenich,  T. Markovich,  S. Mason,  
 S. A. Maurer,  P. F. McLaughlin,  M. F. S. J. Menger,  J.-M. Mewes,  
 S. A. Mewes,  P. Morgante,  J. W. Mullinax,  T. S. Nguyen-Beck,  
 K. J. Oosterbaan,  G. Paran,  Alexander C. Paul,  Suranjan K. Paul,  
 F. Pavosevic,  Zheng Pei,  S. Prager,  E. I. Proynov,  E. Ramos,  B. Rana,  
 A. E. Rask,  A. Rettig,  R. M. Richard,  F. Rob,  E. Rossomme,  T. Scheele,  
 M. Scheurer,  M. Schneider,  N. Sergueev,  S. M. Sharada,  W. Skomorowski,  
 D. W. Small,  C. J. Stein,  Yu-Chuan Su,  E. J. Sundstrom,  Zhen Tao,  
 J. Thirman,  T. Tsuchimochi,  N. M. Tubman,  S. P. Veccham,  O. Vydrov,  
 J. Wenzel,  J. Witte,  A. Yamada,  Kun Yao,  S. Yeganeh,  S. R. Yost,  
 A. Zech,  Igor Ying Zhang,  Xing Zhang,  Yu Zhang,  D. Zuev,  
 A. Aspuru-Guzik,  A. T. Bell,  N. A. Besley,  K. B. Bravaya,  B. R. Brooks,  
 D. Casanova,  Jeng-Da Chai,  S. Coriani,  C. J. Cramer,  
 A. E. DePrince, III,  R. A. DiStasio Jr.,  A. Dreuw,  B. D. Dunietz,  
 T. R. Furlani,  W. A. Goddard III,  S. Grimme,  S. Hammes-Schiffer,  
 T. Head-Gordon,  W. J. Hehre,  Chao-Ping Hsu,  T.-C. Jagau,  Yousung Jung,  
 A. Klamt,  Jing Kong,  D. S. Lambrecht,  WanZhen Liang,  N. J. Mayhall,  
 C. W. McCurdy,  J. B. Neaton,  C. Ochsenfeld,  J. A. Parkhill,  R. Peverati,  
 V. A. Rassolov,  Yihan Shao,  L. V. Slipchenko,  T. Stauch,  R. P. Steele,  
 J. E. Subotnik,  A. J. W. Thom,  A. Tkatchenko,  D. G. Truhlar,  
 T. Van Voorhis,  T. A. Wesolowski,  K. B. Whaley,  H. L. Woodcock III,  
 P. M. Zimmerman,  S. Faraji,  P. M. W. Gill,  M. Head-Gordon,  
 J. M. Herbert,  A. I. Krylov

 Contributors to earlier versions of Q-Chem not listed above: 
 R. D. Adamson,  B. Austin,  R. Baer,  J. Baker,  G. J. O. Beran,  
 K. Brandhorst,  S. T. Brown,  E. F. C. Byrd,  A. K. Chakraborty,  
 G. K. L. Chan,  Chun-Min Chang,  Yunqing Chen,  C.-L. Cheng,  
 Siu Hung Chien,  D. M. Chipman,  D. L. Crittenden,  H. Dachsel,  
 R. J. Doerksen,  A. D. Dutoi,  R. G. Edgar,  J. Fosso-Tande,  
 L. Fusti-Molnar,  D. Ghosh,  A. Ghysels,  A. Golubeva-Zadorozhnaya,  
 J. Gonthier,  M. S. Gordon,  S. R. Gwaltney,  G. Hawkins,  J. E. Herr,  
 A. Heyden,  S. Hirata,  E. G. Hohenstein,  G. Kedziora,  F. J. Keil,  
 C. Kelley,  Jihan Kim,  R. A. King,  R. Z. Khaliullin,  P. P. Korambath,  
 W. Kurlancheek,  A. Laurent,  A. M. Lee,  M. S. Lee,  S. V. Levchenko,  
 Ching Yeh Lin,  D. Liotard,  E. Livshits,  R. C. Lochan,  I. Lotan,  
 L. A. Martinez-Martinez,  P. E. Maslen,  N. Nair,  D. P. O'Neill,  
 D. Neuhauser,  E. Neuscamman,  C. M. Oana,  R. Olivares-Amaya,  R. Olson,  
 T. M. Perrine,  B. Peters,  P. A. Pieniazek,  A. Prociuk,  Y. M. Rhee,  
 J. Ritchie,  M. A. Rohrdanz,  E. Rosta,  N. J. Russ,  H. F. Schaefer III,  
 M. W. Schmidt,  N. E. Schultz,  S. Sharma,  N. Shenvi,  C. D. Sherrill,  
 A. C. Simmonett,  A. Sodt,  T. Stein,  D. Stuck,  K. S. Thanthiriwatte,  
 V. Vanovschi,  L. Vogt,  Tao Wang,  A. Warshel,  M. A. Watson,  
 C. F. Williams,  Q. Wu,  X. Xu,  Jun Yang,  W. Zhang,  Yan Zhao

 Please cite Q-Chem as follows:
 Y. Shao et al., Mol. Phys. 113, 184-215 (2015)
 DOI: 10.1080/00268976.2014.952696

 Q-Chem 5.4.0 for Intel X86 EM64T Linux

 Parts of Q-Chem use Armadillo 9.800.1 (Horizon Scraper).
 http://arma.sourceforge.net/

 Q-Chem begins on Sun Jul 10 11:02:56 2022  

 Host: 
0

     Scratch files written to ./qchem4010902//
 May1621 |scratch|qcdevops|jenkins|workspace|build_RNUM    
 Processing $rem in /cm/shared/apps/spack/cpu/opt/spack/linux-centos8-zen2/gcc-10.2.0/qchem-5.4-akfmr7b3t57bfs6qan3padb2wnb2i7cl/config/preferences:
 Processing $rem in /home/theleonzhang/.qchemrc:
 Symmetry turned off for PCM/SM12/SMD calculation
 Core orbitals will be frozen

 Checking the input file for inconsistencies... 	...done.

--------------------------------------------------------------
User input:
--------------------------------------------------------------
$molecule
0 1
C	-0.524133	-0.333972	0.016960
C	0.137467	0.221128	1.116360
C	1.197567	1.110628	0.793660
H	-0.145033	-0.015972	2.153060
C	1.366667	1.252428	-0.595540
S	0.197767	0.271728	-1.469840
C	2.030867	1.809828	1.831560
H	1.704767	1.536228	2.853660
H	1.958467	2.914028	1.743160
H	3.105667	1.546728	1.743160
C	-0.524133	-1.774672	0.016960
H	0.411267	-1.774872	-0.522940
H	-0.933633	-2.478472	-0.692540
H	-0.050533	-2.293572	0.837160
H	2.093767	1.862628	-1.144640
$end

$rem
JOBTYPE		SP
EXCHANGE	HF
CORRELATION	pRIMP2
BASIS		cc-pvtz
METHOD		rimp2
AUX_BASIS	rimp2-cc-pvtz
SOLVENT_METHOD	PCM
PURECART	11111
SYMMETRY	false
MEM_TOTAL	110000
SCF_CONVERGENCE = 6
THRESH=10
$end



$solvent
dielectric 4.90
$end
--------------------------------------------------------------
 ----------------------------------------------------------------
             Standard Nuclear Orientation (Angstroms)
    I     Atom           X                Y                Z
 ----------------------------------------------------------------
    1      C      -0.5241330000    -0.3339720000     0.0169600000
    2      C       0.1374670000     0.2211280000     1.1163600000
    3      C       1.1975670000     1.1106280000     0.7936600000
    4      H      -0.1450330000    -0.0159720000     2.1530600000
    5      C       1.3666670000     1.2524280000    -0.5955400000
    6      S       0.1977670000     0.2717280000    -1.4698400000
    7      C       2.0308670000     1.8098280000     1.8315600000
    8      H       1.7047670000     1.5362280000     2.8536600000
    9      H       1.9584670000     2.9140280000     1.7431600000
   10      H       3.1056670000     1.5467280000     1.7431600000
   11      C      -0.5241330000    -1.7746720000     0.0169600000
   12      H       0.4112670000    -1.7748720000    -0.5229400000
   13      H      -0.9336330000    -2.4784720000    -0.6925400000
   14      H      -0.0505330000    -2.2935720000     0.8371600000
   15      H       2.0937670000     1.8626280000    -1.1446400000
 ----------------------------------------------------------------
 Nuclear Repulsion Energy =         350.00695948 hartrees
 There are       30 alpha and       30 beta electrons

 Q-Chem warning in module forms1/BasisType.C, line 2236:

 You are not using the predefined 5D/6D in this basis set.

 Requested basis set is cc-pVTZ
 There are 120 shells and 326 basis functions

 Total QAlloc Memory Limit 110000 MB
 Mega-Array Size       188 MB
 MEM_STATIC part       192 MB
 Discretize the solute cavity surface with Lebedev spheres
	Using 110 Lebedev grid points for each H atom
	Using 194 Lebedev grid points for other atoms
	Atomic van der Waals radii will be scaled by 1.20
 Remove points where switching function is < 1.0e-08
 Keep 1044 surface tesserae and discard 1194 interior tesserae
 Molecular Surface Area = 155.907 Angst**2

                       Distance Matrix (Angstroms)
             C (  1)   C (  2)   C (  3)   H (  4)   C (  5)   S (  6)
   C (  2)  1.398045
   C (  3)  2.377895  1.420971
   H (  4)  2.192661  1.100350  2.218056
   C (  5)  2.543019  2.346298  1.406620  3.383619
   S (  6)  1.760280  2.587398  2.612812  3.650437  1.758551
   C (  7)  3.796930  2.573022  1.503498  2.858575  2.577338  4.077407
   H (  8)  4.063559  2.684051  2.163790  2.514344  3.477332  4.750017
   H (  9)  4.437631  3.310684  2.175493  3.630101  2.929276  4.517210
   H ( 10)  4.437595  3.310635  2.175449  3.630028  2.929207  4.517176
   C ( 11)  1.440700  2.372680  3.448546  2.792788  3.621273  2.630488
   H ( 12)  1.800738  2.597362  3.267692  3.250258  3.175312  2.265121
   H ( 13)  2.295640  3.421581  4.430851  3.844897  4.384108  3.073737
   H ( 14)  2.176478  2.537127  3.626048  2.632107  4.078627  3.458998
   H ( 15)  3.609400  3.410829  2.263998  4.406380  1.096599  2.496304
             C (  7)   H (  8)   H (  9)   H ( 10)   C ( 11)   H ( 12)
   H (  8)  1.107198
   H (  9)  1.110096  1.787710
   H ( 10)  1.110059  1.787692  1.784819
   C ( 11)  4.761243  4.896623  5.579156  5.214107
   H ( 12)  4.584414  4.902852  5.432754  4.840251  1.080030
   H ( 13)  5.792138  5.971139  6.586041  6.200872  1.080007  1.527276
   H ( 14)  4.707329  4.670623  5.654734  5.052756  1.079945  1.527148
   H ( 15)  2.977333  4.030417  3.076221  3.076219  4.629543  4.055703
             H ( 13)   H ( 14)
   H ( 14)  1.775961
   H ( 15)  5.311751  5.079326
 
 Requested basis set is rimp2-cc-pVTZ
 There are 250 shells and 848 basis functions
 A cutoff of  1.0D-10 yielded   6353 shell pairs
 There are     46723 function pairs (     60094 Cartesian)
 Smallest overlap matrix eigenvalue = 1.30E-04

 Scale SEOQF with 1.000000e-01/1.000000e-01/1.000000e-01

 Standard Electronic Orientation quadrupole field applied
 Nucleus-field energy     =    -0.0000000008 hartrees
 Guess from superposition of atomic densities
 Warning:  Energy on first SCF cycle will be non-variational
 SAD guess density has 60.000000 electrons

 -----------------------------------------------------------------------
  General SCF calculation program by
  Eric Jon Sundstrom, Paul Horn, Yuezhi Mao, Dmitri Zuev, Alec White,
  David Stuck, Shaama M.S., Shane Yost, Joonho Lee, David Small,
  Daniel Levine, Susi Lehtola, Hugh Burton, Evgeny Epifanovsky,
  Bang C. Huynh
 -----------------------------------------------------------------------
 Hartree-Fock
 A restricted SCF calculation will be
 performed using DIIS
 SCF converges when DIIS error is below 1.0e-06
 ---------------------------------------
  Cycle       Energy         DIIS error
 ---------------------------------------
    1    -632.2010915968      2.95e-02  
    2    -629.2907527837      1.92e-03  
    3    -629.3615854993      6.50e-04  
    4    -629.3689796041      3.23e-04  
    5    -629.3708774666      6.38e-05  
    6    -629.3710246906      2.62e-05  
    7    -629.3710653322      1.23e-05  
    8    -629.3710772686      4.18e-06  
    9    -629.3710788794      1.55e-06  
   10    -629.3710790219      5.70e-07  Convergence criterion met
 ---------------------------------------
 SCF time:   CPU 149.09s  wall 149.00s 

************** Final PCM Free Energy Summary **************
 G_electrostatic  =      -0.00548231 hartree =      -3.44020358 kcal/mol
 G_cavitation     =       0.00000000 hartree =       0.00000000 kcal/mol
 G_dispersion     =       0.00000000 hartree =       0.00000000 kcal/mol
 G_repulsion      =       0.00000000 hartree =       0.00000000 kcal/mol
 --------------------------------------------------
 Non-electrostatic Free Energy =       0.00000000 hartree =       0.00000000 kcal/mol
 Total                         =      -0.00548231 hartree =      -3.44020358 kcal/mol
 --------------------------------------------------
 SCF Energy (H0 + V/2)                       =    -629.37107902 
 Solute Internal Energy (H0)                 =    -629.36559671 
 Total Free Energy (H0 + V/2 + non-elec)     =    -629.37107902 hartree
                                             = -394936.31285971 kcal/mol
***********************************************************

 SCF   energy in the final basis set =     -629.3710790219
 Total energy in the final basis set =     -629.3710790219


 --------------------------------------------------------------
  Generalized many-body perturbation theory program
  by Joonho Lee, Fazle Rob, Xintian Feng, Evgeny Epifanovsky

 No regularization used 
 (reg. param. = 0.0000e+00)
  (P|Q)^-1/2 Time:  CPU 0.48 s  wall 0.49 s

 In RI-MP2 calculation: 
 # of frozen core orbitals: 11

 Components of the RIMP2 correlation energy:
        aaaa    correlation energy =        -0.1470552149 a.u.
        abab    correlation energy =        -0.8927998307 a.u.
        bbbb    correlation energy =        -0.1470552149 a.u.
        non-Brillouin singles      =        -0.0000000000 a.u.
        total same-spin energy     =        -0.2941104297 a.u.
        total opposite-spin energy =        -0.8927998307 a.u.

 Total  RIMP2   correlation energy =        -1.1869102605 a.u.
        RIMP2         total energy =      -630.5579892823 a.u.

 RI-MP2 Energy Time:  CPU 11.23 s  wall 11.27 s
 
 --------------------------------------------------------------
 
                    Orbital Energies (a.u.)
 --------------------------------------------------------------
 
 Alpha MOs
 -- Occupied --
-91.9710 -11.2700 -11.2654 -11.2492 -11.2411 -11.2285 -11.2134  -8.9724
 -6.6533  -6.6525  -6.6521  -1.1723  -1.0583  -0.9958  -0.9412  -0.8796
 -0.7511  -0.7258  -0.6441  -0.5889  -0.5843  -0.5658  -0.5519  -0.5469
 -0.5111  -0.4923  -0.4608  -0.4382  -0.3399  -0.2899
 -- Virtual --
  0.0755   0.1428   0.1581   0.1770   0.1839   0.1913   0.2080   0.2145
  0.2247   0.2459   0.2505   0.2589   0.2920   0.3156   0.3448   0.3461
  0.3668   0.3949   0.4037   0.4209   0.4351   0.4466   0.4637   0.4670
  0.4858   0.4882   0.5177   0.5338   0.5493   0.5502   0.5678   0.5832
  0.5896   0.6018   0.6076   0.6184   0.6325   0.6351   0.6451   0.6496
  0.6513   0.6732   0.6826   0.6983   0.7246   0.7405   0.7484   0.7770
  0.8006   0.8103   0.8260   0.8606   0.8768   0.8805   0.8876   0.9416
  0.9550   0.9631   1.0078   1.0405   1.0500   1.0557   1.0682   1.0802
  1.0881   1.0946   1.1352   1.1488   1.1698   1.1872   1.1955   1.2192
  1.2280   1.2422   1.2455   1.2670   1.2795   1.2954   1.3146   1.3266
  1.3543   1.3838   1.3967   1.4102   1.4189   1.4239   1.4484   1.4767
  1.4779   1.5057   1.5086   1.5222   1.5411   1.5616   1.5658   1.5705
  1.5925   1.6290   1.6475   1.6705   1.6902   1.7036   1.7148   1.7304
  1.7557   1.7864   1.8009   1.8243   1.8837   1.9268   1.9471   1.9702
  1.9843   2.0559   2.0934   2.1421   2.1554   2.1855   2.2058   2.2121
  2.2716   2.2784   2.3544   2.4120   2.4217   2.4869   2.5175   2.5359
  2.5566   2.5895   2.6397   2.6470   2.6706   2.6823   2.7106   2.7308
  2.7501   2.7636   2.7900   2.8123   2.8344   2.8413   2.8541   2.9064
  2.9336   2.9593   2.9846   2.9896   2.9939   3.0372   3.0632   3.0652
  3.0887   3.1116   3.1140   3.1354   3.1579   3.1650   3.1704   3.1914
  3.2095   3.2424   3.2526   3.2591   3.2837   3.2938   3.3041   3.3360
  3.3442   3.3484   3.3704   3.3802   3.3933   3.4075   3.4157   3.4466
  3.4544   3.4818   3.4894   3.5058   3.5250   3.5318   3.5536   3.5571
  3.5703   3.5857   3.5957   3.6267   3.6340   3.6577   3.6780   3.6933
  3.7086   3.7169   3.7364   3.7564   3.7693   3.7827   3.7995   3.8049
  3.8193   3.8542   3.8631   3.9061   3.9151   3.9227   3.9398   3.9628
  3.9883   4.0251   4.0303   4.0502   4.0622   4.0657   4.1002   4.1098
  4.1408   4.1678   4.1856   4.2076   4.2202   4.2320   4.2479   4.2684
  4.2952   4.2984   4.3199   4.3333   4.3690   4.3743   4.4018   4.4052
  4.4306   4.4459   4.4521   4.4779   4.5268   4.5311   4.5596   4.5832
  4.5928   4.6495   4.6567   4.6919   4.7053   4.7313   4.7647   4.7813
  4.8176   4.8535   4.8644   4.8904   4.9122   4.9334   4.9992   5.0940
  5.1104   5.1290   5.1644   5.1874   5.2219   5.2584   5.2909   5.3277
  5.3660   5.3970   5.4220   5.4516   5.4864   5.5170   5.5482   5.5550
  5.5871   5.6118   5.6267   5.6706   5.6951   5.8049   5.8545   5.8833
  5.9023   5.9814   6.0651   6.1190   6.2169   6.2291   6.2621   6.3453
  6.4366   6.4857   9.3005  11.6237  12.8095  13.6455  14.1781  14.4355
 --------------------------------------------------------------
 
          Ground-State Mulliken Net Atomic Charges

     Atom                 Charge (a.u.)
  ----------------------------------------
      1 C                    -0.013656
      2 C                    -0.226686
      3 C                     0.019117
      4 H                     0.182112
      5 C                    -0.223464
      6 S                    -0.006601
      7 C                    -0.268640
      8 H                     0.101879
      9 H                     0.107927
     10 H                     0.106063
     11 C                    -0.370263
     12 H                     0.133172
     13 H                     0.134735
     14 H                     0.129202
     15 H                     0.195105
  ----------------------------------------
  Sum of atomic charges =     0.000000

 -----------------------------------------------------------------
                    Cartesian Multipole Moments
 -----------------------------------------------------------------
    Charge (ESU x 10^10)
                -0.0000
    Dipole Moment (Debye)
         X       2.1780      Y      -0.1649      Z       1.4156
       Tot       2.6029
    Quadrupole Moments (Debye-Ang)
        XX     -50.0227     XY       3.7568     YY     -48.1340
        XZ       0.2872     YZ       0.8516     ZZ     -48.2021
    Octopole Moments (Debye-Ang^2)
       XXX     -73.4234    XXY      -7.9428    XYY     -18.8030
       YYY     -50.2789    XXZ      -4.2882    XYZ      -3.1398
       YYZ      -4.5379    XZZ     -23.4445    YZZ     -14.4499
       ZZZ       3.2587
    Hexadecapole Moments (Debye-Ang^3)
      XXXX    -398.4167   XXXY    -152.0195   XXYY    -142.2592
      XYYY    -157.2179   YYYY    -482.9400   XXXZ     -77.1835
      XXYZ     -24.6493   XYYZ     -25.1341   YYYZ     -60.0604
      XXZZ    -145.1321   XYZZ     -44.7379   YYZZ    -160.5401
      XZZZ     -78.8517   YZZZ     -64.4788   ZZZZ    -481.9374
 -----------------------------------------------------------------
 Total job time:  162.25s(wall), 160.67s(cpu) 
 Sun Jul 10 11:05:38 2022

        *************************************************************
        *                                                           *
        *  Thank you very much for using Q-Chem.  Have a nice day.  *
        *                                                           *
        *************************************************************


remove work dirs ./qchem4010902.0 -- ./qchem4010902.-1
rm -rf ./qchem4010902
