You are running Q-Chem version: 5.4.0

#
# job setting
#
local host:  exp-1-55
current dir: /expanse/lustre/scratch/theleonzhang/temp_project/Hydrogenated_Impropers_Test
input file:  Methylthiophene_Phi_20_Theta_160_Methylthiophene_Hydrogenated_Improper_Alternate.qcin
output file: 
nprocs     : 0
nthreads   : 1
#
# qchem installation setting
#
QC:          /cm/shared/apps/spack/cpu/opt/spack/linux-centos8-zen2/gcc-10.2.0/qchem-5.4-akfmr7b3t57bfs6qan3padb2wnb2i7cl
QCAUX:       /cm/shared/apps/spack/cpu/opt/spack/linux-centos8-zen2/gcc-10.2.0/qchem-5.4-akfmr7b3t57bfs6qan3padb2wnb2i7cl/qcaux
QCPROG:      /cm/shared/apps/spack/cpu/opt/spack/linux-centos8-zen2/gcc-10.2.0/qchem-5.4-akfmr7b3t57bfs6qan3padb2wnb2i7cl/exe/qcprog.exe_s
QCPROG_S:    /cm/shared/apps/spack/cpu/opt/spack/linux-centos8-zen2/gcc-10.2.0/qchem-5.4-akfmr7b3t57bfs6qan3padb2wnb2i7cl/exe/qcprog.exe_s
PARALLEL:    -DSERIAL
QCMPI:       mpich
#
# qchem directory setting
#
qcrun:       qchem1518831
QCSCRATCH:   .
QCLOCALSCR:  
QCTMPDIR:    .
QCFILEPREF:  ./qchem1518831
QCSAVEDIR:   
workdirs:    ./qchem1518831
workdir0:    ./qchem1518831
partmpdirs =  
#
# parallel setting
#
QCRSH:           ssh
QCMPI:           mpich
QCMPIRUN:        /cm/shared/apps/spack/cpu/opt/spack/linux-centos8-zen2/gcc-10.2.0/qchem-5.4-akfmr7b3t57bfs6qan3padb2wnb2i7cl/bin/mpi/mpirun_qchem
QCMACHINEFILE:   ./qchem1518831/hostfile

#
# env setting
#
exported envs:   QC QCAUX QCSCRATCH QCRUNNAME QCFILEPREF QCPROG QCPROG_S GUIFILE

Running Job 1 of 1 Methylthiophene_Phi_20_Theta_160_Methylthiophene_Hydrogenated_Improper_Alternate.qcin
qchem Methylthiophene_Phi_20_Theta_160_Methylthiophene_Hydrogenated_Improper_Alternate.qcin_1518831.0 ./qchem1518831/ 0
/cm/shared/apps/spack/cpu/opt/spack/linux-centos8-zen2/gcc-10.2.0/qchem-5.4-akfmr7b3t57bfs6qan3padb2wnb2i7cl/exe/qcprog.exe_s Methylthiophene_Phi_20_Theta_160_Methylthiophene_Hydrogenated_Improper_Alternate.qcin_1518831.0 ./qchem1518831/
                  Welcome to Q-Chem
     A Quantum Leap Into The Future Of Chemistry


 Q-Chem 5.4, Q-Chem, Inc., Pleasanton, CA (2021)

 License issued to: University of California, San Diego (site)

 E. Epifanovsky,  A. T. B. Gilbert,  Xintian Feng,  Joonho Lee,  Yuezhi Mao,  
 N. Mardirossian,  P. Pokhilko,  A. White,  M. Wormit,  M. P. Coons,  
 A. L. Dempwolff,  Zhengting Gan,  D. Hait,  P. R. Horn,  L. D. Jacobson,  
 I. Kaliman,  J. Kussmann,  A. W. Lange,  Ka Un Lao,  D. S. Levine,  Jie Liu,  
 S. C. McKenzie,  A. F. Morrison,  K. Nanda,  F. Plasser,  D. R. Rehn,  
 M. L. Vidal,  Zhi-Qiang You,  Ying Zhu,  B. Alam,  B. Albrecht,  
 A. Aldossary,  E. Alguire,  J. H. Andersen,  D. Barton,  K. Begam,  A. Behn,  
 Y. A. Bernard,  E. J. Berquist,  H. Burton,  A. Carreras,  K. Carter-Fenk,  
 R. Chakraborty,  A. D. Chien,  K. D. Closser,  V. Cofer-Shabica,  
 S. Dasgupta,  Jia Deng,  M. de Wergifosse,  M. Diedenhofen,  Hainam Do,  
 S. Ehlert,  Po-Tung Fang,  S. Fatehi,  Qingguo Feng,  J. Gayvert,  
 Qinghui Ge,  G. Gidofalvi,  M. Goldey,  J. Gomes,  C. Gonzalez-Espinoza,  
 S. Gulania,  A. Gunina,  M. W. D. Hanson-Heine,  P. H. P. Harbach,  
 A. W. Hauser,  M. F. Herbst,  M. Hernandez Vera,  M. Hodecker,  
 Z. C. Holden,  S. Houck,  Xunkun Huang,  Kerwin Hui,  B. C. Huynh,  
 M. Ivanov,  Hyunjun Ji,  Hanjie Jiang,  B. Kaduk,  S. Kaehler,  
 K. Khistyaev,  Jaehoon Kim,  P. Klunzinger,  Z. Koczor-Benda,  
 Joong Hoon Koh,  D. Kosenkov,  L. Koulias,  T. Kowalczyk,  C. M. Krauter,  
 K. Kue,  A. Kunitsa,  T. Kus,  A. Landau,  K. V. Lawler,  D. Lefrancois,  
 S. Lehtola,  Rain Li,  Yi-Pei Li,  Jiashu Liang,  M. Liebenthal,  
 Hung-Hsuan Lin,  You-Sheng Lin,  Fenglai Liu,  Kuan-Yu Liu,  
 M. Loipersberger,  A. Luenser,  A. Manjanath,  P. Manohar,  E. Mansoor,  
 S. F. Manzer,  Shan-Ping Mao,  A. V. Marenich,  T. Markovich,  S. Mason,  
 S. A. Maurer,  P. F. McLaughlin,  M. F. S. J. Menger,  J.-M. Mewes,  
 S. A. Mewes,  P. Morgante,  J. W. Mullinax,  T. S. Nguyen-Beck,  
 K. J. Oosterbaan,  G. Paran,  Alexander C. Paul,  Suranjan K. Paul,  
 F. Pavosevic,  Zheng Pei,  S. Prager,  E. I. Proynov,  E. Ramos,  B. Rana,  
 A. E. Rask,  A. Rettig,  R. M. Richard,  F. Rob,  E. Rossomme,  T. Scheele,  
 M. Scheurer,  M. Schneider,  N. Sergueev,  S. M. Sharada,  W. Skomorowski,  
 D. W. Small,  C. J. Stein,  Yu-Chuan Su,  E. J. Sundstrom,  Zhen Tao,  
 J. Thirman,  T. Tsuchimochi,  N. M. Tubman,  S. P. Veccham,  O. Vydrov,  
 J. Wenzel,  J. Witte,  A. Yamada,  Kun Yao,  S. Yeganeh,  S. R. Yost,  
 A. Zech,  Igor Ying Zhang,  Xing Zhang,  Yu Zhang,  D. Zuev,  
 A. Aspuru-Guzik,  A. T. Bell,  N. A. Besley,  K. B. Bravaya,  B. R. Brooks,  
 D. Casanova,  Jeng-Da Chai,  S. Coriani,  C. J. Cramer,  
 A. E. DePrince, III,  R. A. DiStasio Jr.,  A. Dreuw,  B. D. Dunietz,  
 T. R. Furlani,  W. A. Goddard III,  S. Grimme,  S. Hammes-Schiffer,  
 T. Head-Gordon,  W. J. Hehre,  Chao-Ping Hsu,  T.-C. Jagau,  Yousung Jung,  
 A. Klamt,  Jing Kong,  D. S. Lambrecht,  WanZhen Liang,  N. J. Mayhall,  
 C. W. McCurdy,  J. B. Neaton,  C. Ochsenfeld,  J. A. Parkhill,  R. Peverati,  
 V. A. Rassolov,  Yihan Shao,  L. V. Slipchenko,  T. Stauch,  R. P. Steele,  
 J. E. Subotnik,  A. J. W. Thom,  A. Tkatchenko,  D. G. Truhlar,  
 T. Van Voorhis,  T. A. Wesolowski,  K. B. Whaley,  H. L. Woodcock III,  
 P. M. Zimmerman,  S. Faraji,  P. M. W. Gill,  M. Head-Gordon,  
 J. M. Herbert,  A. I. Krylov

 Contributors to earlier versions of Q-Chem not listed above: 
 R. D. Adamson,  B. Austin,  R. Baer,  J. Baker,  G. J. O. Beran,  
 K. Brandhorst,  S. T. Brown,  E. F. C. Byrd,  A. K. Chakraborty,  
 G. K. L. Chan,  Chun-Min Chang,  Yunqing Chen,  C.-L. Cheng,  
 Siu Hung Chien,  D. M. Chipman,  D. L. Crittenden,  H. Dachsel,  
 R. J. Doerksen,  A. D. Dutoi,  R. G. Edgar,  J. Fosso-Tande,  
 L. Fusti-Molnar,  D. Ghosh,  A. Ghysels,  A. Golubeva-Zadorozhnaya,  
 J. Gonthier,  M. S. Gordon,  S. R. Gwaltney,  G. Hawkins,  J. E. Herr,  
 A. Heyden,  S. Hirata,  E. G. Hohenstein,  G. Kedziora,  F. J. Keil,  
 C. Kelley,  Jihan Kim,  R. A. King,  R. Z. Khaliullin,  P. P. Korambath,  
 W. Kurlancheek,  A. Laurent,  A. M. Lee,  M. S. Lee,  S. V. Levchenko,  
 Ching Yeh Lin,  D. Liotard,  E. Livshits,  R. C. Lochan,  I. Lotan,  
 L. A. Martinez-Martinez,  P. E. Maslen,  N. Nair,  D. P. O'Neill,  
 D. Neuhauser,  E. Neuscamman,  C. M. Oana,  R. Olivares-Amaya,  R. Olson,  
 T. M. Perrine,  B. Peters,  P. A. Pieniazek,  A. Prociuk,  Y. M. Rhee,  
 J. Ritchie,  M. A. Rohrdanz,  E. Rosta,  N. J. Russ,  H. F. Schaefer III,  
 M. W. Schmidt,  N. E. Schultz,  S. Sharma,  N. Shenvi,  C. D. Sherrill,  
 A. C. Simmonett,  A. Sodt,  T. Stein,  D. Stuck,  K. S. Thanthiriwatte,  
 V. Vanovschi,  L. Vogt,  Tao Wang,  A. Warshel,  M. A. Watson,  
 C. F. Williams,  Q. Wu,  X. Xu,  Jun Yang,  W. Zhang,  Yan Zhao

 Please cite Q-Chem as follows:
 Y. Shao et al., Mol. Phys. 113, 184-215 (2015)
 DOI: 10.1080/00268976.2014.952696

 Q-Chem 5.4.0 for Intel X86 EM64T Linux

 Parts of Q-Chem use Armadillo 9.800.1 (Horizon Scraper).
 http://arma.sourceforge.net/

 Q-Chem begins on Sun Jul 10 10:02:03 2022  

 Host: 
0

     Scratch files written to ./qchem1518831//
 May1621 |scratch|qcdevops|jenkins|workspace|build_RNUM    
 Processing $rem in /cm/shared/apps/spack/cpu/opt/spack/linux-centos8-zen2/gcc-10.2.0/qchem-5.4-akfmr7b3t57bfs6qan3padb2wnb2i7cl/config/preferences:
 Processing $rem in /home/theleonzhang/.qchemrc:
 Symmetry turned off for PCM/SM12/SMD calculation
 Core orbitals will be frozen

 Checking the input file for inconsistencies... 	...done.

--------------------------------------------------------------
User input:
--------------------------------------------------------------
$molecule
0 1
C	-0.236374	-0.535397	0.017231
C	0.059026	0.276103	1.116631
C	0.532326	1.576503	0.793931
H	-0.067074	-0.070397	2.153331
C	0.607826	1.783903	-0.595269
S	0.085926	0.350203	-1.469569
C	0.904426	2.598703	1.831831
H	0.758826	2.198703	2.853931
H	0.289626	3.518703	1.743431
H	1.966826	2.908303	1.743431
C	-0.236374	-1.976097	0.017231
H	0.778526	-1.975797	-0.352069
H	0.043726	-2.679897	0.787031
H	-0.560274	-2.494997	-0.872769
H	0.932526	2.675903	-1.144369
$end

$rem
JOBTYPE		SP
EXCHANGE	HF
CORRELATION	pRIMP2
BASIS		cc-pvtz
METHOD		rimp2
AUX_BASIS	rimp2-cc-pvtz
SOLVENT_METHOD	PCM
PURECART	11111
SYMMETRY	false
MEM_TOTAL	110000
SCF_CONVERGENCE = 6
THRESH=10
$end



$solvent
dielectric 4.90
$end
--------------------------------------------------------------
 ----------------------------------------------------------------
             Standard Nuclear Orientation (Angstroms)
    I     Atom           X                Y                Z
 ----------------------------------------------------------------
    1      C      -0.2363740000    -0.5353970000     0.0172310000
    2      C       0.0590260000     0.2761030000     1.1166310000
    3      C       0.5323260000     1.5765030000     0.7939310000
    4      H      -0.0670740000    -0.0703970000     2.1533310000
    5      C       0.6078260000     1.7839030000    -0.5952690000
    6      S       0.0859260000     0.3502030000    -1.4695690000
    7      C       0.9044260000     2.5987030000     1.8318310000
    8      H       0.7588260000     2.1987030000     2.8539310000
    9      H       0.2896260000     3.5187030000     1.7434310000
   10      H       1.9668260000     2.9083030000     1.7434310000
   11      C      -0.2363740000    -1.9760970000     0.0172310000
   12      H       0.7785260000    -1.9757970000    -0.3520690000
   13      H       0.0437260000    -2.6798970000     0.7870310000
   14      H      -0.5602740000    -2.4949970000    -0.8727690000
   15      H       0.9325260000     2.6759030000    -1.1443690000
 ----------------------------------------------------------------
 Nuclear Repulsion Energy =         345.50214642 hartrees
 There are       30 alpha and       30 beta electrons

 Q-Chem warning in module forms1/BasisType.C, line 2236:

 You are not using the predefined 5D/6D in this basis set.

 Requested basis set is cc-pVTZ
 There are 120 shells and 326 basis functions

 Total QAlloc Memory Limit 110000 MB
 Mega-Array Size       188 MB
 MEM_STATIC part       192 MB
 Discretize the solute cavity surface with Lebedev spheres
	Using 110 Lebedev grid points for each H atom
	Using 194 Lebedev grid points for other atoms
	Atomic van der Waals radii will be scaled by 1.20
 Remove points where switching function is < 1.0e-08
 Keep 1067 surface tesserae and discard 1171 interior tesserae
 Molecular Surface Area = 158.296 Angst**2

                       Distance Matrix (Angstroms)
             C (  1)   C (  2)   C (  3)   H (  4)   C (  5)   S (  6)
   C (  2)  1.398025
   C (  3)  2.377874  1.420981
   H (  4)  2.192672  1.100323  2.218001
   C (  5)  2.543026  2.346326  1.406624  3.383596
   S (  6)  1.760324  2.587401  2.612760  3.650441  1.758487
   C (  7)  3.796944  2.573069  1.503525  2.858543  2.577341  4.077369
   H (  8)  4.063569  2.684087  2.163801  2.514312  3.477332  4.749989
   H (  9)  4.437586  3.310666  2.175453  3.629999  2.929215  4.517107
   H ( 10)  4.437671  3.310749  2.175553  3.630072  2.929279  4.517193
   C ( 11)  1.440700  2.523558  3.716871  2.867626  3.901978  2.779590
   H ( 12)  1.800321  2.783130  3.740691  3.259236  3.771423  2.671849
   H ( 13)  2.295632  2.974358  4.284357  2.947633  4.706854  3.778297
   H ( 14)  2.176475  3.467022  4.533076  3.908863  4.444148  2.978071
   H ( 15)  3.609444  3.410889  2.264033  4.406381  1.096633  2.496271
             C (  7)   H (  8)   H (  9)   H ( 10)   C ( 11)   H ( 12)
   H (  8)  1.107198
   H (  9)  1.110042  1.787669
   H ( 10)  1.110117  1.787738  1.784822
   C ( 11)  5.052029  5.144535  5.783534  5.629496
   H ( 12)  5.070633  5.263580  5.900820  5.445880  1.080002
   H ( 13)  5.449406  5.346418  6.276767  5.986735  1.079992  1.527494
   H ( 14)  5.950293  6.136704  6.612974  6.513554  1.079939  1.527443
   H ( 15)  2.977334  4.030421  3.076202  3.076227  4.935255  4.721204
             H ( 13)   H ( 14)
   H ( 14)  1.775934
   H ( 15)  5.762366  5.388917
 
 Requested basis set is rimp2-cc-pVTZ
 There are 250 shells and 848 basis functions
 A cutoff of  1.0D-10 yielded   6192 shell pairs
 There are     45414 function pairs (     58413 Cartesian)
 Smallest overlap matrix eigenvalue = 1.05E-04

 Scale SEOQF with 1.000000e-01/1.000000e-01/1.000000e-01

 Standard Electronic Orientation quadrupole field applied
 Nucleus-field energy     =     0.0000000018 hartrees
 Guess from superposition of atomic densities
 Warning:  Energy on first SCF cycle will be non-variational
 SAD guess density has 60.000000 electrons

 -----------------------------------------------------------------------
  General SCF calculation program by
  Eric Jon Sundstrom, Paul Horn, Yuezhi Mao, Dmitri Zuev, Alec White,
  David Stuck, Shaama M.S., Shane Yost, Joonho Lee, David Small,
  Daniel Levine, Susi Lehtola, Hugh Burton, Evgeny Epifanovsky,
  Bang C. Huynh
 -----------------------------------------------------------------------
 Hartree-Fock
 A restricted SCF calculation will be
 performed using DIIS
 SCF converges when DIIS error is below 1.0e-06
 ---------------------------------------
  Cycle       Energy         DIIS error
 ---------------------------------------
    1    -632.1115206703      2.92e-02  
    2    -629.3372084714      1.95e-03  
    3    -629.4078014120      7.08e-04  
    4    -629.4155836460      3.62e-04  
    5    -629.4178817096      6.29e-05  
    6    -629.4180186097      2.64e-05  
    7    -629.4180527783      1.15e-05  
    8    -629.4180624124      5.27e-06  
    9    -629.4180639703      1.74e-06  
   10    -629.4180641778      7.18e-07  Convergence criterion met
 ---------------------------------------
 SCF time:   CPU 145.56s  wall 146.00s 

************** Final PCM Free Energy Summary **************
 G_electrostatic  =      -0.00554976 hartree =      -3.48252536 kcal/mol
 G_cavitation     =       0.00000000 hartree =       0.00000000 kcal/mol
 G_dispersion     =       0.00000000 hartree =       0.00000000 kcal/mol
 G_repulsion      =       0.00000000 hartree =       0.00000000 kcal/mol
 --------------------------------------------------
 Non-electrostatic Free Energy =       0.00000000 hartree =       0.00000000 kcal/mol
 Total                         =      -0.00554976 hartree =      -3.48252536 kcal/mol
 --------------------------------------------------
 SCF Energy (H0 + V/2)                       =    -629.41806418 
 Solute Internal Energy (H0)                 =    -629.41251442 
 Total Free Energy (H0 + V/2 + non-elec)     =    -629.41806418 hartree
                                             = -394965.79649006 kcal/mol
***********************************************************

 SCF   energy in the final basis set =     -629.4180641778
 Total energy in the final basis set =     -629.4180641778


 --------------------------------------------------------------
  Generalized many-body perturbation theory program
  by Joonho Lee, Fazle Rob, Xintian Feng, Evgeny Epifanovsky

 No regularization used 
 (reg. param. = 0.0000e+00)
  (P|Q)^-1/2 Time:  CPU 0.49 s  wall 0.50 s

 In RI-MP2 calculation: 
 # of frozen core orbitals: 11

 Components of the RIMP2 correlation energy:
        aaaa    correlation energy =        -0.1452363961 a.u.
        abab    correlation energy =        -0.8859739238 a.u.
        bbbb    correlation energy =        -0.1452363961 a.u.
        non-Brillouin singles      =        -0.0000000000 a.u.
        total same-spin energy     =        -0.2904727922 a.u.
        total opposite-spin energy =        -0.8859739238 a.u.

 Total  RIMP2   correlation energy =        -1.1764467161 a.u.
        RIMP2         total energy =      -630.5945108939 a.u.

 RI-MP2 Energy Time:  CPU 11.31 s  wall 11.35 s
 
 --------------------------------------------------------------
 
                    Orbital Energies (a.u.)
 --------------------------------------------------------------
 
 Alpha MOs
 -- Occupied --
-91.9774 -11.2828 -11.2523 -11.2471 -11.2266 -11.2248 -11.2214  -8.9775
 -6.6586  -6.6580  -6.6573  -1.1623  -1.0567  -0.9959  -0.9431  -0.8816
 -0.7455  -0.7190  -0.6492  -0.5866  -0.5784  -0.5649  -0.5527  -0.5476
 -0.5075  -0.4939  -0.4647  -0.4554  -0.3398  -0.2895
 -- Virtual --
  0.1048   0.1447   0.1508   0.1751   0.1880   0.1974   0.2056   0.2159
  0.2249   0.2462   0.2480   0.2598   0.2936   0.3314   0.3472   0.3486
  0.3808   0.3957   0.4018   0.4269   0.4334   0.4636   0.4670   0.4804
  0.4943   0.5000   0.5215   0.5299   0.5411   0.5567   0.5678   0.5884
  0.5966   0.6046   0.6155   0.6202   0.6306   0.6400   0.6437   0.6480
  0.6556   0.6706   0.6906   0.6912   0.7263   0.7468   0.7683   0.7989
  0.8067   0.8214   0.8387   0.8450   0.8651   0.8869   0.8984   0.9254
  0.9542   0.9667   1.0035   1.0136   1.0330   1.0572   1.0709   1.0746
  1.0784   1.0963   1.1136   1.1319   1.1532   1.1735   1.1781   1.2084
  1.2254   1.2441   1.2538   1.2697   1.2746   1.2898   1.3129   1.3259
  1.3696   1.3838   1.3994   1.4088   1.4340   1.4404   1.4544   1.4740
  1.4842   1.5061   1.5171   1.5244   1.5416   1.5513   1.5529   1.5811
  1.6050   1.6324   1.6357   1.6709   1.6848   1.7012   1.7166   1.7512
  1.7546   1.7843   1.8043   1.8304   1.8974   1.9205   1.9395   1.9663
  2.0241   2.0357   2.1060   2.1273   2.1781   2.1841   2.2303   2.2500
  2.2816   2.2849   2.3441   2.4185   2.4413   2.4711   2.4946   2.5449
  2.5591   2.5916   2.6324   2.6533   2.6675   2.6954   2.7190   2.7363
  2.7474   2.7661   2.7710   2.8025   2.8314   2.8472   2.8737   2.8793
  2.9015   2.9251   2.9626   2.9857   2.9983   3.0329   3.0514   3.0736
  3.0836   3.1044   3.1144   3.1419   3.1544   3.1652   3.1740   3.1847
  3.1978   3.2427   3.2475   3.2771   3.2897   3.2991   3.3145   3.3284
  3.3384   3.3538   3.3814   3.3968   3.4195   3.4233   3.4263   3.4463
  3.4529   3.4648   3.4755   3.4973   3.5146   3.5170   3.5432   3.5492
  3.5827   3.5926   3.6015   3.6220   3.6336   3.6443   3.6553   3.6867
  3.6892   3.7047   3.7274   3.7387   3.7600   3.7653   3.7866   3.7986
  3.8106   3.8350   3.8592   3.8819   3.9013   3.9155   3.9473   3.9660
  3.9734   3.9997   4.0033   4.0364   4.0453   4.0704   4.0812   4.1022
  4.1130   4.1472   4.1691   4.1971   4.2187   4.2297   4.2553   4.2723
  4.2891   4.3001   4.3185   4.3405   4.3521   4.3799   4.3921   4.4025
  4.4097   4.4324   4.4447   4.4666   4.4840   4.5310   4.5352   4.5776
  4.5983   4.6158   4.6422   4.6616   4.7158   4.7361   4.7597   4.7617
  4.7967   4.8230   4.8623   4.8684   4.9064   4.9332   5.0654   5.0856
  5.1157   5.1473   5.1735   5.1931   5.2156   5.2600   5.2899   5.3335
  5.3715   5.4061   5.4111   5.4428   5.4843   5.5328   5.5536   5.5645
  5.6012   5.6046   5.6216   5.6539   5.6980   5.8053   5.8342   5.8513
  5.9353   6.0134   6.0519   6.1462   6.2284   6.2526   6.2882   6.3778
  6.4339   6.5980   9.2040  11.3556  12.8927  13.7434  14.1811  14.5813
 --------------------------------------------------------------
 
          Ground-State Mulliken Net Atomic Charges

     Atom                 Charge (a.u.)
  ----------------------------------------
      1 C                     0.062683
      2 C                    -0.329293
      3 C                     0.064536
      4 H                     0.177082
      5 C                    -0.276564
      6 S                    -0.001875
      7 C                    -0.271694
      8 H                     0.101528
      9 H                     0.107564
     10 H                     0.107051
     11 C                    -0.371679
     12 H                     0.143352
     13 H                     0.161605
     14 H                     0.132655
     15 H                     0.193050
  ----------------------------------------
  Sum of atomic charges =     0.000000

 -----------------------------------------------------------------
                    Cartesian Multipole Moments
 -----------------------------------------------------------------
    Charge (ESU x 10^10)
                -0.0000
    Dipole Moment (Debye)
         X       1.0951      Y      -0.5991      Z       1.2095
       Tot       1.7381
    Quadrupole Moments (Debye-Ang)
        XX     -53.6608     XY       1.4816     YY     -42.8801
        XZ       0.3426     YZ       0.6093     ZZ     -48.6274
    Octopole Moments (Debye-Ang^2)
       XXX     -37.4690    XXY     -26.2673    XYY      -3.5508
       YYY     -78.1220    XXZ      -2.2257    XYZ      -1.7722
       YYZ      -4.1918    XZZ     -10.7608    YZZ     -23.9343
       ZZZ       1.3861
    Hexadecapole Moments (Debye-Ang^3)
      XXXX    -143.9293   XXXY    -101.2372   XXYY    -157.1557
      XYYY     -92.8404   YYYY    -748.0881   XXXZ     -32.1229
      XXYZ     -29.9528   XYYZ     -11.8476   YYYZ     -99.0198
      XXZZ    -110.6213   XYZZ     -26.9298   YYZZ    -201.0423
      XZZZ     -35.1609   YZZZ     -96.2923   ZZZZ    -484.1844
 -----------------------------------------------------------------
 Total job time:  159.62s(wall), 157.26s(cpu) 
 Sun Jul 10 10:04:43 2022

        *************************************************************
        *                                                           *
        *  Thank you very much for using Q-Chem.  Have a nice day.  *
        *                                                           *
        *************************************************************


remove work dirs ./qchem1518831.0 -- ./qchem1518831.-1
rm -rf ./qchem1518831
You are running Q-Chem version: 5.4.0

#
# job setting
#
local host:  exp-13-53
current dir: /expanse/lustre/scratch/theleonzhang/temp_project/Hydrogenated_Impropers_Test
input file:  Methylthiophene_Phi_20_Theta_160_Methylthiophene_Hydrogenated_Improper_Alternate.qcin
output file: 
nprocs     : 0
nthreads   : 1
#
# qchem installation setting
#
QC:          /cm/shared/apps/spack/cpu/opt/spack/linux-centos8-zen2/gcc-10.2.0/qchem-5.4-akfmr7b3t57bfs6qan3padb2wnb2i7cl
QCAUX:       /cm/shared/apps/spack/cpu/opt/spack/linux-centos8-zen2/gcc-10.2.0/qchem-5.4-akfmr7b3t57bfs6qan3padb2wnb2i7cl/qcaux
QCPROG:      /cm/shared/apps/spack/cpu/opt/spack/linux-centos8-zen2/gcc-10.2.0/qchem-5.4-akfmr7b3t57bfs6qan3padb2wnb2i7cl/exe/qcprog.exe_s
QCPROG_S:    /cm/shared/apps/spack/cpu/opt/spack/linux-centos8-zen2/gcc-10.2.0/qchem-5.4-akfmr7b3t57bfs6qan3padb2wnb2i7cl/exe/qcprog.exe_s
PARALLEL:    -DSERIAL
QCMPI:       mpich
#
# qchem directory setting
#
qcrun:       qchem757772
QCSCRATCH:   .
QCLOCALSCR:  
QCTMPDIR:    .
QCFILEPREF:  ./qchem757772
QCSAVEDIR:   
workdirs:    ./qchem757772
workdir0:    ./qchem757772
partmpdirs =  
#
# parallel setting
#
QCRSH:           ssh
QCMPI:           mpich
QCMPIRUN:        /cm/shared/apps/spack/cpu/opt/spack/linux-centos8-zen2/gcc-10.2.0/qchem-5.4-akfmr7b3t57bfs6qan3padb2wnb2i7cl/bin/mpi/mpirun_qchem
QCMACHINEFILE:   ./qchem757772/hostfile

#
# env setting
#
exported envs:   QC QCAUX QCSCRATCH QCRUNNAME QCFILEPREF QCPROG QCPROG_S GUIFILE

Running Job 1 of 1 Methylthiophene_Phi_20_Theta_160_Methylthiophene_Hydrogenated_Improper_Alternate.qcin
qchem Methylthiophene_Phi_20_Theta_160_Methylthiophene_Hydrogenated_Improper_Alternate.qcin_757772.0 ./qchem757772/ 0
/cm/shared/apps/spack/cpu/opt/spack/linux-centos8-zen2/gcc-10.2.0/qchem-5.4-akfmr7b3t57bfs6qan3padb2wnb2i7cl/exe/qcprog.exe_s Methylthiophene_Phi_20_Theta_160_Methylthiophene_Hydrogenated_Improper_Alternate.qcin_757772.0 ./qchem757772/
                  Welcome to Q-Chem
     A Quantum Leap Into The Future Of Chemistry


 Q-Chem 5.4, Q-Chem, Inc., Pleasanton, CA (2021)

 License issued to: University of California, San Diego (site)

 E. Epifanovsky,  A. T. B. Gilbert,  Xintian Feng,  Joonho Lee,  Yuezhi Mao,  
 N. Mardirossian,  P. Pokhilko,  A. White,  M. Wormit,  M. P. Coons,  
 A. L. Dempwolff,  Zhengting Gan,  D. Hait,  P. R. Horn,  L. D. Jacobson,  
 I. Kaliman,  J. Kussmann,  A. W. Lange,  Ka Un Lao,  D. S. Levine,  Jie Liu,  
 S. C. McKenzie,  A. F. Morrison,  K. Nanda,  F. Plasser,  D. R. Rehn,  
 M. L. Vidal,  Zhi-Qiang You,  Ying Zhu,  B. Alam,  B. Albrecht,  
 A. Aldossary,  E. Alguire,  J. H. Andersen,  D. Barton,  K. Begam,  A. Behn,  
 Y. A. Bernard,  E. J. Berquist,  H. Burton,  A. Carreras,  K. Carter-Fenk,  
 R. Chakraborty,  A. D. Chien,  K. D. Closser,  V. Cofer-Shabica,  
 S. Dasgupta,  Jia Deng,  M. de Wergifosse,  M. Diedenhofen,  Hainam Do,  
 S. Ehlert,  Po-Tung Fang,  S. Fatehi,  Qingguo Feng,  J. Gayvert,  
 Qinghui Ge,  G. Gidofalvi,  M. Goldey,  J. Gomes,  C. Gonzalez-Espinoza,  
 S. Gulania,  A. Gunina,  M. W. D. Hanson-Heine,  P. H. P. Harbach,  
 A. W. Hauser,  M. F. Herbst,  M. Hernandez Vera,  M. Hodecker,  
 Z. C. Holden,  S. Houck,  Xunkun Huang,  Kerwin Hui,  B. C. Huynh,  
 M. Ivanov,  Hyunjun Ji,  Hanjie Jiang,  B. Kaduk,  S. Kaehler,  
 K. Khistyaev,  Jaehoon Kim,  P. Klunzinger,  Z. Koczor-Benda,  
 Joong Hoon Koh,  D. Kosenkov,  L. Koulias,  T. Kowalczyk,  C. M. Krauter,  
 K. Kue,  A. Kunitsa,  T. Kus,  A. Landau,  K. V. Lawler,  D. Lefrancois,  
 S. Lehtola,  Rain Li,  Yi-Pei Li,  Jiashu Liang,  M. Liebenthal,  
 Hung-Hsuan Lin,  You-Sheng Lin,  Fenglai Liu,  Kuan-Yu Liu,  
 M. Loipersberger,  A. Luenser,  A. Manjanath,  P. Manohar,  E. Mansoor,  
 S. F. Manzer,  Shan-Ping Mao,  A. V. Marenich,  T. Markovich,  S. Mason,  
 S. A. Maurer,  P. F. McLaughlin,  M. F. S. J. Menger,  J.-M. Mewes,  
 S. A. Mewes,  P. Morgante,  J. W. Mullinax,  T. S. Nguyen-Beck,  
 K. J. Oosterbaan,  G. Paran,  Alexander C. Paul,  Suranjan K. Paul,  
 F. Pavosevic,  Zheng Pei,  S. Prager,  E. I. Proynov,  E. Ramos,  B. Rana,  
 A. E. Rask,  A. Rettig,  R. M. Richard,  F. Rob,  E. Rossomme,  T. Scheele,  
 M. Scheurer,  M. Schneider,  N. Sergueev,  S. M. Sharada,  W. Skomorowski,  
 D. W. Small,  C. J. Stein,  Yu-Chuan Su,  E. J. Sundstrom,  Zhen Tao,  
 J. Thirman,  T. Tsuchimochi,  N. M. Tubman,  S. P. Veccham,  O. Vydrov,  
 J. Wenzel,  J. Witte,  A. Yamada,  Kun Yao,  S. Yeganeh,  S. R. Yost,  
 A. Zech,  Igor Ying Zhang,  Xing Zhang,  Yu Zhang,  D. Zuev,  
 A. Aspuru-Guzik,  A. T. Bell,  N. A. Besley,  K. B. Bravaya,  B. R. Brooks,  
 D. Casanova,  Jeng-Da Chai,  S. Coriani,  C. J. Cramer,  
 A. E. DePrince, III,  R. A. DiStasio Jr.,  A. Dreuw,  B. D. Dunietz,  
 T. R. Furlani,  W. A. Goddard III,  S. Grimme,  S. Hammes-Schiffer,  
 T. Head-Gordon,  W. J. Hehre,  Chao-Ping Hsu,  T.-C. Jagau,  Yousung Jung,  
 A. Klamt,  Jing Kong,  D. S. Lambrecht,  WanZhen Liang,  N. J. Mayhall,  
 C. W. McCurdy,  J. B. Neaton,  C. Ochsenfeld,  J. A. Parkhill,  R. Peverati,  
 V. A. Rassolov,  Yihan Shao,  L. V. Slipchenko,  T. Stauch,  R. P. Steele,  
 J. E. Subotnik,  A. J. W. Thom,  A. Tkatchenko,  D. G. Truhlar,  
 T. Van Voorhis,  T. A. Wesolowski,  K. B. Whaley,  H. L. Woodcock III,  
 P. M. Zimmerman,  S. Faraji,  P. M. W. Gill,  M. Head-Gordon,  
 J. M. Herbert,  A. I. Krylov

 Contributors to earlier versions of Q-Chem not listed above: 
 R. D. Adamson,  B. Austin,  R. Baer,  J. Baker,  G. J. O. Beran,  
 K. Brandhorst,  S. T. Brown,  E. F. C. Byrd,  A. K. Chakraborty,  
 G. K. L. Chan,  Chun-Min Chang,  Yunqing Chen,  C.-L. Cheng,  
 Siu Hung Chien,  D. M. Chipman,  D. L. Crittenden,  H. Dachsel,  
 R. J. Doerksen,  A. D. Dutoi,  R. G. Edgar,  J. Fosso-Tande,  
 L. Fusti-Molnar,  D. Ghosh,  A. Ghysels,  A. Golubeva-Zadorozhnaya,  
 J. Gonthier,  M. S. Gordon,  S. R. Gwaltney,  G. Hawkins,  J. E. Herr,  
 A. Heyden,  S. Hirata,  E. G. Hohenstein,  G. Kedziora,  F. J. Keil,  
 C. Kelley,  Jihan Kim,  R. A. King,  R. Z. Khaliullin,  P. P. Korambath,  
 W. Kurlancheek,  A. Laurent,  A. M. Lee,  M. S. Lee,  S. V. Levchenko,  
 Ching Yeh Lin,  D. Liotard,  E. Livshits,  R. C. Lochan,  I. Lotan,  
 L. A. Martinez-Martinez,  P. E. Maslen,  N. Nair,  D. P. O'Neill,  
 D. Neuhauser,  E. Neuscamman,  C. M. Oana,  R. Olivares-Amaya,  R. Olson,  
 T. M. Perrine,  B. Peters,  P. A. Pieniazek,  A. Prociuk,  Y. M. Rhee,  
 J. Ritchie,  M. A. Rohrdanz,  E. Rosta,  N. J. Russ,  H. F. Schaefer III,  
 M. W. Schmidt,  N. E. Schultz,  S. Sharma,  N. Shenvi,  C. D. Sherrill,  
 A. C. Simmonett,  A. Sodt,  T. Stein,  D. Stuck,  K. S. Thanthiriwatte,  
 V. Vanovschi,  L. Vogt,  Tao Wang,  A. Warshel,  M. A. Watson,  
 C. F. Williams,  Q. Wu,  X. Xu,  Jun Yang,  W. Zhang,  Yan Zhao

 Please cite Q-Chem as follows:
 Y. Shao et al., Mol. Phys. 113, 184-215 (2015)
 DOI: 10.1080/00268976.2014.952696

 Q-Chem 5.4.0 for Intel X86 EM64T Linux

 Parts of Q-Chem use Armadillo 9.800.1 (Horizon Scraper).
 http://arma.sourceforge.net/

 Q-Chem begins on Sun Jul 10 10:39:26 2022  

 Host: 
0

     Scratch files written to ./qchem757772//
 May1621 |scratch|qcdevops|jenkins|workspace|build_RNUM    
 Processing $rem in /cm/shared/apps/spack/cpu/opt/spack/linux-centos8-zen2/gcc-10.2.0/qchem-5.4-akfmr7b3t57bfs6qan3padb2wnb2i7cl/config/preferences:
 Processing $rem in /home/theleonzhang/.qchemrc:
 Symmetry turned off for PCM/SM12/SMD calculation
 Core orbitals will be frozen

 Checking the input file for inconsistencies... 	...done.

--------------------------------------------------------------
User input:
--------------------------------------------------------------
$molecule
0 1
C	-0.236374	-0.535397	0.017231
C	0.059026	0.276103	1.116631
C	0.532326	1.576503	0.793931
H	-0.067074	-0.070397	2.153331
C	0.607826	1.783903	-0.595269
S	0.085926	0.350203	-1.469569
C	0.904426	2.598703	1.831831
H	0.758826	2.198703	2.853931
H	0.289626	3.518703	1.743431
H	1.966826	2.908303	1.743431
C	-0.236374	-1.976097	0.017231
H	0.778526	-1.975797	-0.352069
H	0.043726	-2.679897	0.787031
H	-0.560274	-2.494997	-0.872769
H	0.932526	2.675903	-1.144369
$end

$rem
JOBTYPE		SP
EXCHANGE	HF
CORRELATION	pRIMP2
BASIS		cc-pvtz
METHOD		rimp2
AUX_BASIS	rimp2-cc-pvtz
SOLVENT_METHOD	PCM
PURECART	11111
SYMMETRY	false
MEM_TOTAL	110000
SCF_CONVERGENCE = 6
THRESH=10
$end



$solvent
dielectric 4.90
$end
--------------------------------------------------------------
 ----------------------------------------------------------------
             Standard Nuclear Orientation (Angstroms)
    I     Atom           X                Y                Z
 ----------------------------------------------------------------
    1      C      -0.2363740000    -0.5353970000     0.0172310000
    2      C       0.0590260000     0.2761030000     1.1166310000
    3      C       0.5323260000     1.5765030000     0.7939310000
    4      H      -0.0670740000    -0.0703970000     2.1533310000
    5      C       0.6078260000     1.7839030000    -0.5952690000
    6      S       0.0859260000     0.3502030000    -1.4695690000
    7      C       0.9044260000     2.5987030000     1.8318310000
    8      H       0.7588260000     2.1987030000     2.8539310000
    9      H       0.2896260000     3.5187030000     1.7434310000
   10      H       1.9668260000     2.9083030000     1.7434310000
   11      C      -0.2363740000    -1.9760970000     0.0172310000
   12      H       0.7785260000    -1.9757970000    -0.3520690000
   13      H       0.0437260000    -2.6798970000     0.7870310000
   14      H      -0.5602740000    -2.4949970000    -0.8727690000
   15      H       0.9325260000     2.6759030000    -1.1443690000
 ----------------------------------------------------------------
 Nuclear Repulsion Energy =         345.50214642 hartrees
 There are       30 alpha and       30 beta electrons

 Q-Chem warning in module forms1/BasisType.C, line 2236:

 You are not using the predefined 5D/6D in this basis set.

 Requested basis set is cc-pVTZ
 There are 120 shells and 326 basis functions

 Total QAlloc Memory Limit 110000 MB
 Mega-Array Size       188 MB
 MEM_STATIC part       192 MB
 Discretize the solute cavity surface with Lebedev spheres
	Using 110 Lebedev grid points for each H atom
	Using 194 Lebedev grid points for other atoms
	Atomic van der Waals radii will be scaled by 1.20
 Remove points where switching function is < 1.0e-08
 Keep 1067 surface tesserae and discard 1171 interior tesserae
 Molecular Surface Area = 158.296 Angst**2

                       Distance Matrix (Angstroms)
             C (  1)   C (  2)   C (  3)   H (  4)   C (  5)   S (  6)
   C (  2)  1.398025
   C (  3)  2.377874  1.420981
   H (  4)  2.192672  1.100323  2.218001
   C (  5)  2.543026  2.346326  1.406624  3.383596
   S (  6)  1.760324  2.587401  2.612760  3.650441  1.758487
   C (  7)  3.796944  2.573069  1.503525  2.858543  2.577341  4.077369
   H (  8)  4.063569  2.684087  2.163801  2.514312  3.477332  4.749989
   H (  9)  4.437586  3.310666  2.175453  3.629999  2.929215  4.517107
   H ( 10)  4.437671  3.310749  2.175553  3.630072  2.929279  4.517193
   C ( 11)  1.440700  2.523558  3.716871  2.867626  3.901978  2.779590
   H ( 12)  1.800321  2.783130  3.740691  3.259236  3.771423  2.671849
   H ( 13)  2.295632  2.974358  4.284357  2.947633  4.706854  3.778297
   H ( 14)  2.176475  3.467022  4.533076  3.908863  4.444148  2.978071
   H ( 15)  3.609444  3.410889  2.264033  4.406381  1.096633  2.496271
             C (  7)   H (  8)   H (  9)   H ( 10)   C ( 11)   H ( 12)
   H (  8)  1.107198
   H (  9)  1.110042  1.787669
   H ( 10)  1.110117  1.787738  1.784822
   C ( 11)  5.052029  5.144535  5.783534  5.629496
   H ( 12)  5.070633  5.263580  5.900820  5.445880  1.080002
   H ( 13)  5.449406  5.346418  6.276767  5.986735  1.079992  1.527494
   H ( 14)  5.950293  6.136704  6.612974  6.513554  1.079939  1.527443
   H ( 15)  2.977334  4.030421  3.076202  3.076227  4.935255  4.721204
             H ( 13)   H ( 14)
   H ( 14)  1.775934
   H ( 15)  5.762366  5.388917
 
 Requested basis set is rimp2-cc-pVTZ
 There are 250 shells and 848 basis functions
 A cutoff of  1.0D-10 yielded   6192 shell pairs
 There are     45414 function pairs (     58413 Cartesian)
 Smallest overlap matrix eigenvalue = 1.05E-04

 Scale SEOQF with 1.000000e-01/1.000000e-01/1.000000e-01

 Standard Electronic Orientation quadrupole field applied
 Nucleus-field energy     =     0.0000000018 hartrees
 Guess from superposition of atomic densities
 Warning:  Energy on first SCF cycle will be non-variational
 SAD guess density has 60.000000 electrons

 -----------------------------------------------------------------------
  General SCF calculation program by
  Eric Jon Sundstrom, Paul Horn, Yuezhi Mao, Dmitri Zuev, Alec White,
  David Stuck, Shaama M.S., Shane Yost, Joonho Lee, David Small,
  Daniel Levine, Susi Lehtola, Hugh Burton, Evgeny Epifanovsky,
  Bang C. Huynh
 -----------------------------------------------------------------------
 Hartree-Fock
 A restricted SCF calculation will be
 performed using DIIS
 SCF converges when DIIS error is below 1.0e-06
 ---------------------------------------
  Cycle       Energy         DIIS error
 ---------------------------------------
    1    -632.1115206703      2.92e-02  
    2    -629.3372084714      1.95e-03  
    3    -629.4078014120      7.08e-04  
    4    -629.4155836460      3.62e-04  
    5    -629.4178817096      6.29e-05  
    6    -629.4180186097      2.64e-05  
    7    -629.4180527783      1.15e-05  
    8    -629.4180624124      5.27e-06  
    9    -629.4180639703      1.74e-06  
   10    -629.4180641778      7.18e-07  Convergence criterion met
 ---------------------------------------
 SCF time:   CPU 143.71s  wall 145.00s 

************** Final PCM Free Energy Summary **************
 G_electrostatic  =      -0.00554976 hartree =      -3.48252536 kcal/mol
 G_cavitation     =       0.00000000 hartree =       0.00000000 kcal/mol
 G_dispersion     =       0.00000000 hartree =       0.00000000 kcal/mol
 G_repulsion      =       0.00000000 hartree =       0.00000000 kcal/mol
 --------------------------------------------------
 Non-electrostatic Free Energy =       0.00000000 hartree =       0.00000000 kcal/mol
 Total                         =      -0.00554976 hartree =      -3.48252536 kcal/mol
 --------------------------------------------------
 SCF Energy (H0 + V/2)                       =    -629.41806418 
 Solute Internal Energy (H0)                 =    -629.41251442 
 Total Free Energy (H0 + V/2 + non-elec)     =    -629.41806418 hartree
                                             = -394965.79649006 kcal/mol
***********************************************************

 SCF   energy in the final basis set =     -629.4180641778
 Total energy in the final basis set =     -629.4180641778


 --------------------------------------------------------------
  Generalized many-body perturbation theory program
  by Joonho Lee, Fazle Rob, Xintian Feng, Evgeny Epifanovsky

 No regularization used 
 (reg. param. = 0.0000e+00)
  (P|Q)^-1/2 Time:  CPU 0.48 s  wall 0.48 s

 In RI-MP2 calculation: 
 # of frozen core orbitals: 11

 Components of the RIMP2 correlation energy:
        aaaa    correlation energy =        -0.1452363961 a.u.
        abab    correlation energy =        -0.8859739238 a.u.
        bbbb    correlation energy =        -0.1452363961 a.u.
        non-Brillouin singles      =        -0.0000000000 a.u.
        total same-spin energy     =        -0.2904727922 a.u.
        total opposite-spin energy =        -0.8859739238 a.u.

 Total  RIMP2   correlation energy =        -1.1764467161 a.u.
        RIMP2         total energy =      -630.5945108939 a.u.

 RI-MP2 Energy Time:  CPU 11.04 s  wall 11.07 s
 
 --------------------------------------------------------------
 
                    Orbital Energies (a.u.)
 --------------------------------------------------------------
 
 Alpha MOs
 -- Occupied --
-91.9774 -11.2828 -11.2523 -11.2471 -11.2266 -11.2248 -11.2214  -8.9775
 -6.6586  -6.6580  -6.6573  -1.1623  -1.0567  -0.9959  -0.9431  -0.8816
 -0.7455  -0.7190  -0.6492  -0.5866  -0.5784  -0.5649  -0.5527  -0.5476
 -0.5075  -0.4939  -0.4647  -0.4554  -0.3398  -0.2895
 -- Virtual --
  0.1048   0.1447   0.1508   0.1751   0.1880   0.1974   0.2056   0.2159
  0.2249   0.2462   0.2480   0.2598   0.2936   0.3314   0.3472   0.3486
  0.3808   0.3957   0.4018   0.4269   0.4334   0.4636   0.4670   0.4804
  0.4943   0.5000   0.5215   0.5299   0.5411   0.5567   0.5678   0.5884
  0.5966   0.6046   0.6155   0.6202   0.6306   0.6400   0.6437   0.6480
  0.6556   0.6706   0.6906   0.6912   0.7263   0.7468   0.7683   0.7989
  0.8067   0.8214   0.8387   0.8450   0.8651   0.8869   0.8984   0.9254
  0.9542   0.9667   1.0035   1.0136   1.0330   1.0572   1.0709   1.0746
  1.0784   1.0963   1.1136   1.1319   1.1532   1.1735   1.1781   1.2084
  1.2254   1.2441   1.2538   1.2697   1.2746   1.2898   1.3129   1.3259
  1.3696   1.3838   1.3994   1.4088   1.4340   1.4404   1.4544   1.4740
  1.4842   1.5061   1.5171   1.5244   1.5416   1.5513   1.5529   1.5811
  1.6050   1.6324   1.6357   1.6709   1.6848   1.7012   1.7166   1.7512
  1.7546   1.7843   1.8043   1.8304   1.8974   1.9205   1.9395   1.9663
  2.0241   2.0357   2.1060   2.1273   2.1781   2.1841   2.2303   2.2500
  2.2816   2.2849   2.3441   2.4185   2.4413   2.4711   2.4946   2.5449
  2.5591   2.5916   2.6324   2.6533   2.6675   2.6954   2.7190   2.7363
  2.7474   2.7661   2.7710   2.8025   2.8314   2.8472   2.8737   2.8793
  2.9015   2.9251   2.9626   2.9857   2.9983   3.0329   3.0514   3.0736
  3.0836   3.1044   3.1144   3.1419   3.1544   3.1652   3.1740   3.1847
  3.1978   3.2427   3.2475   3.2771   3.2897   3.2991   3.3145   3.3284
  3.3384   3.3538   3.3814   3.3968   3.4195   3.4233   3.4263   3.4463
  3.4529   3.4648   3.4755   3.4973   3.5146   3.5170   3.5432   3.5492
  3.5827   3.5926   3.6015   3.6220   3.6336   3.6443   3.6553   3.6867
  3.6892   3.7047   3.7274   3.7387   3.7600   3.7653   3.7866   3.7986
  3.8106   3.8350   3.8592   3.8819   3.9013   3.9155   3.9473   3.9660
  3.9734   3.9997   4.0033   4.0364   4.0453   4.0704   4.0812   4.1022
  4.1130   4.1472   4.1691   4.1971   4.2187   4.2297   4.2553   4.2723
  4.2891   4.3001   4.3185   4.3405   4.3521   4.3799   4.3921   4.4025
  4.4097   4.4324   4.4447   4.4666   4.4840   4.5310   4.5352   4.5776
  4.5983   4.6158   4.6422   4.6616   4.7158   4.7361   4.7597   4.7617
  4.7967   4.8230   4.8623   4.8684   4.9064   4.9332   5.0654   5.0856
  5.1157   5.1473   5.1735   5.1931   5.2156   5.2600   5.2899   5.3335
  5.3715   5.4061   5.4111   5.4428   5.4843   5.5328   5.5536   5.5645
  5.6012   5.6046   5.6216   5.6539   5.6980   5.8053   5.8342   5.8513
  5.9353   6.0134   6.0519   6.1462   6.2284   6.2526   6.2882   6.3778
  6.4339   6.5980   9.2040  11.3556  12.8927  13.7434  14.1811  14.5813
 --------------------------------------------------------------
 
          Ground-State Mulliken Net Atomic Charges

     Atom                 Charge (a.u.)
  ----------------------------------------
      1 C                     0.062683
      2 C                    -0.329293
      3 C                     0.064536
      4 H                     0.177082
      5 C                    -0.276564
      6 S                    -0.001875
      7 C                    -0.271694
      8 H                     0.101528
      9 H                     0.107564
     10 H                     0.107051
     11 C                    -0.371679
     12 H                     0.143352
     13 H                     0.161605
     14 H                     0.132655
     15 H                     0.193050
  ----------------------------------------
  Sum of atomic charges =     0.000000

 -----------------------------------------------------------------
                    Cartesian Multipole Moments
 -----------------------------------------------------------------
    Charge (ESU x 10^10)
                -0.0000
    Dipole Moment (Debye)
         X       1.0951      Y      -0.5991      Z       1.2095
       Tot       1.7381
    Quadrupole Moments (Debye-Ang)
        XX     -53.6608     XY       1.4816     YY     -42.8801
        XZ       0.3426     YZ       0.6093     ZZ     -48.6274
    Octopole Moments (Debye-Ang^2)
       XXX     -37.4690    XXY     -26.2673    XYY      -3.5508
       YYY     -78.1220    XXZ      -2.2257    XYZ      -1.7722
       YYZ      -4.1918    XZZ     -10.7608    YZZ     -23.9343
       ZZZ       1.3861
    Hexadecapole Moments (Debye-Ang^3)
      XXXX    -143.9293   XXXY    -101.2372   XXYY    -157.1557
      XYYY     -92.8404   YYYY    -748.0881   XXXZ     -32.1229
      XXYZ     -29.9528   XYYZ     -11.8476   YYYZ     -99.0198
      XXZZ    -110.6213   XYZZ     -26.9298   YYZZ    -201.0423
      XZZZ     -35.1609   YZZZ     -96.2923   ZZZZ    -484.1844
 -----------------------------------------------------------------
 Total job time:  156.48s(wall), 155.10s(cpu) 
 Sun Jul 10 10:42:03 2022

        *************************************************************
        *                                                           *
        *  Thank you very much for using Q-Chem.  Have a nice day.  *
        *                                                           *
        *************************************************************


remove work dirs ./qchem757772.0 -- ./qchem757772.-1
rm -rf ./qchem757772
