You are running Q-Chem version: 5.4.0

#
# job setting
#
local host:  exp-5-33
current dir: /expanse/lustre/scratch/theleonzhang/temp_project/Hydrogenated_Impropers_Test
input file:  Methylthiophene_Phi_30_Theta_340_Methylthiophene_Hydrogenated_Improper_Alternate.qcin
output file: 
nprocs     : 0
nthreads   : 1
#
# qchem installation setting
#
QC:          /cm/shared/apps/spack/cpu/opt/spack/linux-centos8-zen2/gcc-10.2.0/qchem-5.4-akfmr7b3t57bfs6qan3padb2wnb2i7cl
QCAUX:       /cm/shared/apps/spack/cpu/opt/spack/linux-centos8-zen2/gcc-10.2.0/qchem-5.4-akfmr7b3t57bfs6qan3padb2wnb2i7cl/qcaux
QCPROG:      /cm/shared/apps/spack/cpu/opt/spack/linux-centos8-zen2/gcc-10.2.0/qchem-5.4-akfmr7b3t57bfs6qan3padb2wnb2i7cl/exe/qcprog.exe_s
QCPROG_S:    /cm/shared/apps/spack/cpu/opt/spack/linux-centos8-zen2/gcc-10.2.0/qchem-5.4-akfmr7b3t57bfs6qan3padb2wnb2i7cl/exe/qcprog.exe_s
PARALLEL:    -DSERIAL
QCMPI:       mpich
#
# qchem directory setting
#
qcrun:       qchem2194351
QCSCRATCH:   .
QCLOCALSCR:  
QCTMPDIR:    .
QCFILEPREF:  ./qchem2194351
QCSAVEDIR:   
workdirs:    ./qchem2194351
workdir0:    ./qchem2194351
partmpdirs =  
#
# parallel setting
#
QCRSH:           ssh
QCMPI:           mpich
QCMPIRUN:        /cm/shared/apps/spack/cpu/opt/spack/linux-centos8-zen2/gcc-10.2.0/qchem-5.4-akfmr7b3t57bfs6qan3padb2wnb2i7cl/bin/mpi/mpirun_qchem
QCMACHINEFILE:   ./qchem2194351/hostfile

#
# env setting
#
exported envs:   QC QCAUX QCSCRATCH QCRUNNAME QCFILEPREF QCPROG QCPROG_S GUIFILE

Running Job 1 of 1 Methylthiophene_Phi_30_Theta_340_Methylthiophene_Hydrogenated_Improper_Alternate.qcin
qchem Methylthiophene_Phi_30_Theta_340_Methylthiophene_Hydrogenated_Improper_Alternate.qcin_2194351.0 ./qchem2194351/ 0
/cm/shared/apps/spack/cpu/opt/spack/linux-centos8-zen2/gcc-10.2.0/qchem-5.4-akfmr7b3t57bfs6qan3padb2wnb2i7cl/exe/qcprog.exe_s Methylthiophene_Phi_30_Theta_340_Methylthiophene_Hydrogenated_Improper_Alternate.qcin_2194351.0 ./qchem2194351/
                  Welcome to Q-Chem
     A Quantum Leap Into The Future Of Chemistry


 Q-Chem 5.4, Q-Chem, Inc., Pleasanton, CA (2021)

 License issued to: University of California, San Diego (site)

 E. Epifanovsky,  A. T. B. Gilbert,  Xintian Feng,  Joonho Lee,  Yuezhi Mao,  
 N. Mardirossian,  P. Pokhilko,  A. White,  M. Wormit,  M. P. Coons,  
 A. L. Dempwolff,  Zhengting Gan,  D. Hait,  P. R. Horn,  L. D. Jacobson,  
 I. Kaliman,  J. Kussmann,  A. W. Lange,  Ka Un Lao,  D. S. Levine,  Jie Liu,  
 S. C. McKenzie,  A. F. Morrison,  K. Nanda,  F. Plasser,  D. R. Rehn,  
 M. L. Vidal,  Zhi-Qiang You,  Ying Zhu,  B. Alam,  B. Albrecht,  
 A. Aldossary,  E. Alguire,  J. H. Andersen,  D. Barton,  K. Begam,  A. Behn,  
 Y. A. Bernard,  E. J. Berquist,  H. Burton,  A. Carreras,  K. Carter-Fenk,  
 R. Chakraborty,  A. D. Chien,  K. D. Closser,  V. Cofer-Shabica,  
 S. Dasgupta,  Jia Deng,  M. de Wergifosse,  M. Diedenhofen,  Hainam Do,  
 S. Ehlert,  Po-Tung Fang,  S. Fatehi,  Qingguo Feng,  J. Gayvert,  
 Qinghui Ge,  G. Gidofalvi,  M. Goldey,  J. Gomes,  C. Gonzalez-Espinoza,  
 S. Gulania,  A. Gunina,  M. W. D. Hanson-Heine,  P. H. P. Harbach,  
 A. W. Hauser,  M. F. Herbst,  M. Hernandez Vera,  M. Hodecker,  
 Z. C. Holden,  S. Houck,  Xunkun Huang,  Kerwin Hui,  B. C. Huynh,  
 M. Ivanov,  Hyunjun Ji,  Hanjie Jiang,  B. Kaduk,  S. Kaehler,  
 K. Khistyaev,  Jaehoon Kim,  P. Klunzinger,  Z. Koczor-Benda,  
 Joong Hoon Koh,  D. Kosenkov,  L. Koulias,  T. Kowalczyk,  C. M. Krauter,  
 K. Kue,  A. Kunitsa,  T. Kus,  A. Landau,  K. V. Lawler,  D. Lefrancois,  
 S. Lehtola,  Rain Li,  Yi-Pei Li,  Jiashu Liang,  M. Liebenthal,  
 Hung-Hsuan Lin,  You-Sheng Lin,  Fenglai Liu,  Kuan-Yu Liu,  
 M. Loipersberger,  A. Luenser,  A. Manjanath,  P. Manohar,  E. Mansoor,  
 S. F. Manzer,  Shan-Ping Mao,  A. V. Marenich,  T. Markovich,  S. Mason,  
 S. A. Maurer,  P. F. McLaughlin,  M. F. S. J. Menger,  J.-M. Mewes,  
 S. A. Mewes,  P. Morgante,  J. W. Mullinax,  T. S. Nguyen-Beck,  
 K. J. Oosterbaan,  G. Paran,  Alexander C. Paul,  Suranjan K. Paul,  
 F. Pavosevic,  Zheng Pei,  S. Prager,  E. I. Proynov,  E. Ramos,  B. Rana,  
 A. E. Rask,  A. Rettig,  R. M. Richard,  F. Rob,  E. Rossomme,  T. Scheele,  
 M. Scheurer,  M. Schneider,  N. Sergueev,  S. M. Sharada,  W. Skomorowski,  
 D. W. Small,  C. J. Stein,  Yu-Chuan Su,  E. J. Sundstrom,  Zhen Tao,  
 J. Thirman,  T. Tsuchimochi,  N. M. Tubman,  S. P. Veccham,  O. Vydrov,  
 J. Wenzel,  J. Witte,  A. Yamada,  Kun Yao,  S. Yeganeh,  S. R. Yost,  
 A. Zech,  Igor Ying Zhang,  Xing Zhang,  Yu Zhang,  D. Zuev,  
 A. Aspuru-Guzik,  A. T. Bell,  N. A. Besley,  K. B. Bravaya,  B. R. Brooks,  
 D. Casanova,  Jeng-Da Chai,  S. Coriani,  C. J. Cramer,  
 A. E. DePrince, III,  R. A. DiStasio Jr.,  A. Dreuw,  B. D. Dunietz,  
 T. R. Furlani,  W. A. Goddard III,  S. Grimme,  S. Hammes-Schiffer,  
 T. Head-Gordon,  W. J. Hehre,  Chao-Ping Hsu,  T.-C. Jagau,  Yousung Jung,  
 A. Klamt,  Jing Kong,  D. S. Lambrecht,  WanZhen Liang,  N. J. Mayhall,  
 C. W. McCurdy,  J. B. Neaton,  C. Ochsenfeld,  J. A. Parkhill,  R. Peverati,  
 V. A. Rassolov,  Yihan Shao,  L. V. Slipchenko,  T. Stauch,  R. P. Steele,  
 J. E. Subotnik,  A. J. W. Thom,  A. Tkatchenko,  D. G. Truhlar,  
 T. Van Voorhis,  T. A. Wesolowski,  K. B. Whaley,  H. L. Woodcock III,  
 P. M. Zimmerman,  S. Faraji,  P. M. W. Gill,  M. Head-Gordon,  
 J. M. Herbert,  A. I. Krylov

 Contributors to earlier versions of Q-Chem not listed above: 
 R. D. Adamson,  B. Austin,  R. Baer,  J. Baker,  G. J. O. Beran,  
 K. Brandhorst,  S. T. Brown,  E. F. C. Byrd,  A. K. Chakraborty,  
 G. K. L. Chan,  Chun-Min Chang,  Yunqing Chen,  C.-L. Cheng,  
 Siu Hung Chien,  D. M. Chipman,  D. L. Crittenden,  H. Dachsel,  
 R. J. Doerksen,  A. D. Dutoi,  R. G. Edgar,  J. Fosso-Tande,  
 L. Fusti-Molnar,  D. Ghosh,  A. Ghysels,  A. Golubeva-Zadorozhnaya,  
 J. Gonthier,  M. S. Gordon,  S. R. Gwaltney,  G. Hawkins,  J. E. Herr,  
 A. Heyden,  S. Hirata,  E. G. Hohenstein,  G. Kedziora,  F. J. Keil,  
 C. Kelley,  Jihan Kim,  R. A. King,  R. Z. Khaliullin,  P. P. Korambath,  
 W. Kurlancheek,  A. Laurent,  A. M. Lee,  M. S. Lee,  S. V. Levchenko,  
 Ching Yeh Lin,  D. Liotard,  E. Livshits,  R. C. Lochan,  I. Lotan,  
 L. A. Martinez-Martinez,  P. E. Maslen,  N. Nair,  D. P. O'Neill,  
 D. Neuhauser,  E. Neuscamman,  C. M. Oana,  R. Olivares-Amaya,  R. Olson,  
 T. M. Perrine,  B. Peters,  P. A. Pieniazek,  A. Prociuk,  Y. M. Rhee,  
 J. Ritchie,  M. A. Rohrdanz,  E. Rosta,  N. J. Russ,  H. F. Schaefer III,  
 M. W. Schmidt,  N. E. Schultz,  S. Sharma,  N. Shenvi,  C. D. Sherrill,  
 A. C. Simmonett,  A. Sodt,  T. Stein,  D. Stuck,  K. S. Thanthiriwatte,  
 V. Vanovschi,  L. Vogt,  Tao Wang,  A. Warshel,  M. A. Watson,  
 C. F. Williams,  Q. Wu,  X. Xu,  Jun Yang,  W. Zhang,  Yan Zhao

 Please cite Q-Chem as follows:
 Y. Shao et al., Mol. Phys. 113, 184-215 (2015)
 DOI: 10.1080/00268976.2014.952696

 Q-Chem 5.4.0 for Intel X86 EM64T Linux

 Parts of Q-Chem use Armadillo 9.800.1 (Horizon Scraper).
 http://arma.sourceforge.net/

 Q-Chem begins on Sun Jul 10 10:54:30 2022  

 Host: 
0

     Scratch files written to ./qchem2194351//
 May1621 |scratch|qcdevops|jenkins|workspace|build_RNUM    
 Processing $rem in /cm/shared/apps/spack/cpu/opt/spack/linux-centos8-zen2/gcc-10.2.0/qchem-5.4-akfmr7b3t57bfs6qan3padb2wnb2i7cl/config/preferences:
 Processing $rem in /home/theleonzhang/.qchemrc:
 Symmetry turned off for PCM/SM12/SMD calculation
 Core orbitals will be frozen

 Checking the input file for inconsistencies... 	...done.

--------------------------------------------------------------
User input:
--------------------------------------------------------------
$molecule
0 1
C	-0.343933	-0.485419	0.016151
C	0.087867	0.262481	1.115551
C	0.779867	1.460981	0.792851
H	-0.096533	-0.056919	2.152251
C	0.890167	1.652081	-0.596349
S	0.127267	0.330681	-1.470649
C	1.323767	2.402981	1.830751
H	1.110967	2.034381	2.852851
H	0.878067	3.415781	1.742351
H	2.423767	2.523381	1.742351
C	-0.343933	-1.926119	0.016151
H	0.670967	-1.926319	-0.353149
H	-0.624033	-2.629919	-0.753649
H	-0.020033	-2.445019	0.906151
H	1.364867	2.474081	-1.145449
$end

$rem
JOBTYPE		SP
EXCHANGE	HF
CORRELATION	pRIMP2
BASIS		cc-pvtz
METHOD		rimp2
AUX_BASIS	rimp2-cc-pvtz
SOLVENT_METHOD	PCM
PURECART	11111
SYMMETRY	false
MEM_TOTAL	110000
SCF_CONVERGENCE = 6
THRESH=10
$end



$solvent
dielectric 4.90
$end
--------------------------------------------------------------
 ----------------------------------------------------------------
             Standard Nuclear Orientation (Angstroms)
    I     Atom           X                Y                Z
 ----------------------------------------------------------------
    1      C      -0.3439330000    -0.4854190000     0.0161510000
    2      C       0.0878670000     0.2624810000     1.1155510000
    3      C       0.7798670000     1.4609810000     0.7928510000
    4      H      -0.0965330000    -0.0569190000     2.1522510000
    5      C       0.8901670000     1.6520810000    -0.5963490000
    6      S       0.1272670000     0.3306810000    -1.4706490000
    7      C       1.3237670000     2.4029810000     1.8307510000
    8      H       1.1109670000     2.0343810000     2.8528510000
    9      H       0.8780670000     3.4157810000     1.7423510000
   10      H       2.4237670000     2.5233810000     1.7423510000
   11      C      -0.3439330000    -1.9261190000     0.0161510000
   12      H       0.6709670000    -1.9263190000    -0.3531490000
   13      H      -0.6240330000    -2.6299190000    -0.7536490000
   14      H      -0.0200330000    -2.4450190000     0.9061510000
   15      H       1.3648670000     2.4740810000    -1.1454490000
 ----------------------------------------------------------------
 Nuclear Repulsion Energy =         346.54993461 hartrees
 There are       30 alpha and       30 beta electrons

 Q-Chem warning in module forms1/BasisType.C, line 2236:

 You are not using the predefined 5D/6D in this basis set.

 Requested basis set is cc-pVTZ
 There are 120 shells and 326 basis functions

 Total QAlloc Memory Limit 110000 MB
 Mega-Array Size       188 MB
 MEM_STATIC part       192 MB
 Discretize the solute cavity surface with Lebedev spheres
	Using 110 Lebedev grid points for each H atom
	Using 194 Lebedev grid points for other atoms
	Atomic van der Waals radii will be scaled by 1.20
 Remove points where switching function is < 1.0e-08
 Keep 1051 surface tesserae and discard 1187 interior tesserae
 Molecular Surface Area = 157.864 Angst**2

                       Distance Matrix (Angstroms)
             C (  1)   C (  2)   C (  3)   H (  4)   C (  5)   S (  6)
   C (  2)  1.398029
   C (  3)  2.377953  1.421056
   H (  4)  2.192656  1.100348  2.218122
   C (  5)  2.543043  2.346332  1.406614  3.383646
   S (  6)  1.760291  2.587399  2.612833  3.650442  1.758555
   C (  7)  3.796953  2.573072  1.503472  2.858622  2.577339  4.077411
   H (  8)  4.063618  2.684134  2.163796  2.514445  3.477339  4.750043
   H (  9)  4.437613  3.310679  2.175416  3.630084  2.929215  4.517180
   H ( 10)  4.437658  3.310736  2.175466  3.630135  2.929268  4.517213
   C ( 11)  1.440700  2.486986  3.652210  2.849217  3.834276  2.743310
   H ( 12)  1.800721  2.699617  3.577566  3.218811  3.593347  2.576522
   H ( 13)  2.295632  3.516630  4.593262  3.916994  4.544565  3.137466
   H ( 14)  2.176475  2.717728  3.988673  2.694743  4.457824  3.657237
   H ( 15)  3.609425  3.410869  2.263980  4.406413  1.096602  2.496312
             C (  7)   H (  8)   H (  9)   H ( 10)   C ( 11)   H ( 12)
   H (  8)  1.107176
   H (  9)  1.110057  1.787657
   H ( 10)  1.110095  1.787673  1.784815
   C ( 11)  4.981476  5.084207  5.745341  5.517063
   H ( 12)  4.892689  5.114605  5.742129  5.221423  1.080002
   H ( 13)  5.983572  6.145955  6.710947  6.486571  1.079992  1.527245
   H ( 14)  5.115055  5.013365  5.987887  5.599677  1.079939  1.527209
   H ( 15)  2.977333  4.030410  3.076225  3.076213  4.861180  4.524683
             H ( 13)   H ( 14)
   H ( 14)  1.775934
   H ( 15)  5.491816  5.506774
 
 Requested basis set is rimp2-cc-pVTZ
 There are 250 shells and 848 basis functions
 A cutoff of  1.0D-10 yielded   6239 shell pairs
 There are     45795 function pairs (     58896 Cartesian)
 Smallest overlap matrix eigenvalue = 1.17E-04

 Scale SEOQF with 1.000000e-01/1.000000e-01/1.000000e-01

 Standard Electronic Orientation quadrupole field applied
 Nucleus-field energy     =     0.0000000011 hartrees
 Guess from superposition of atomic densities
 Warning:  Energy on first SCF cycle will be non-variational
 SAD guess density has 60.000000 electrons

 -----------------------------------------------------------------------
  General SCF calculation program by
  Eric Jon Sundstrom, Paul Horn, Yuezhi Mao, Dmitri Zuev, Alec White,
  David Stuck, Shaama M.S., Shane Yost, Joonho Lee, David Small,
  Daniel Levine, Susi Lehtola, Hugh Burton, Evgeny Epifanovsky,
  Bang C. Huynh
 -----------------------------------------------------------------------
 Hartree-Fock
 A restricted SCF calculation will be
 performed using DIIS
 SCF converges when DIIS error is below 1.0e-06
 ---------------------------------------
  Cycle       Energy         DIIS error
 ---------------------------------------
    1    -632.1292373533      2.93e-02  
    2    -629.3289680774      1.94e-03  
    3    -629.3992876253      6.83e-04  
    4    -629.4067725965      3.52e-04  
    5    -629.4089332301      6.35e-05  
    6    -629.4090699422      2.63e-05  
    7    -629.4091043590      1.16e-05  
    8    -629.4091141630      5.25e-06  
    9    -629.4091157986      1.76e-06  
   10    -629.4091160109      6.74e-07  Convergence criterion met
 ---------------------------------------
 SCF time:   CPU 145.09s  wall 146.00s 

************** Final PCM Free Energy Summary **************
 G_electrostatic  =      -0.00539190 hartree =      -3.38346761 kcal/mol
 G_cavitation     =       0.00000000 hartree =       0.00000000 kcal/mol
 G_dispersion     =       0.00000000 hartree =       0.00000000 kcal/mol
 G_repulsion      =       0.00000000 hartree =       0.00000000 kcal/mol
 --------------------------------------------------
 Non-electrostatic Free Energy =       0.00000000 hartree =       0.00000000 kcal/mol
 Total                         =      -0.00539190 hartree =      -3.38346761 kcal/mol
 --------------------------------------------------
 SCF Energy (H0 + V/2)                       =    -629.40911601 
 Solute Internal Energy (H0)                 =    -629.40372411 
 Total Free Energy (H0 + V/2 + non-elec)     =    -629.40911601 hartree
                                             = -394960.18143058 kcal/mol
***********************************************************

 SCF   energy in the final basis set =     -629.4091160109
 Total energy in the final basis set =     -629.4091160109


 --------------------------------------------------------------
  Generalized many-body perturbation theory program
  by Joonho Lee, Fazle Rob, Xintian Feng, Evgeny Epifanovsky

 No regularization used 
 (reg. param. = 0.0000e+00)
  (P|Q)^-1/2 Time:  CPU 0.51 s  wall 0.51 s

 In RI-MP2 calculation: 
 # of frozen core orbitals: 11

 Components of the RIMP2 correlation energy:
        aaaa    correlation energy =        -0.1456728205 a.u.
        abab    correlation energy =        -0.8875941823 a.u.
        bbbb    correlation energy =        -0.1456728205 a.u.
        non-Brillouin singles      =        -0.0000000000 a.u.
        total same-spin energy     =        -0.2913456409 a.u.
        total opposite-spin energy =        -0.8875941823 a.u.

 Total  RIMP2   correlation energy =        -1.1789398233 a.u.
        RIMP2         total energy =      -630.5880558342 a.u.

 RI-MP2 Energy Time:  CPU 12.65 s  wall 12.67 s
 
 --------------------------------------------------------------
 
                    Orbital Energies (a.u.)
 --------------------------------------------------------------
 
 Alpha MOs
 -- Occupied --
-91.9749 -11.2801 -11.2555 -11.2477 -11.2287 -11.2271 -11.2202  -8.9754
 -6.6563  -6.6557  -6.6551  -1.1644  -1.0569  -0.9960  -0.9418  -0.8814
 -0.7464  -0.7207  -0.6462  -0.5890  -0.5804  -0.5666  -0.5507  -0.5472
 -0.5077  -0.4946  -0.4623  -0.4525  -0.3399  -0.2894
 -- Virtual --
  0.0965   0.1448   0.1534   0.1758   0.1867   0.1954   0.2097   0.2161
  0.2224   0.2462   0.2513   0.2581   0.2956   0.3282   0.3441   0.3470
  0.3781   0.3978   0.4038   0.4239   0.4371   0.4606   0.4642   0.4754
  0.4875   0.4937   0.5264   0.5286   0.5426   0.5552   0.5608   0.5851
  0.5918   0.6047   0.6075   0.6221   0.6315   0.6395   0.6441   0.6490
  0.6578   0.6702   0.6798   0.6924   0.7255   0.7523   0.7574   0.7887
  0.8078   0.8139   0.8385   0.8561   0.8611   0.8738   0.8938   0.9230
  0.9550   0.9680   1.0085   1.0235   1.0337   1.0572   1.0668   1.0764
  1.0799   1.0973   1.1222   1.1436   1.1528   1.1785   1.1994   1.2022
  1.2313   1.2430   1.2502   1.2597   1.2717   1.3036   1.3117   1.3380
  1.3512   1.3899   1.3964   1.4079   1.4304   1.4306   1.4483   1.4665
  1.4804   1.5024   1.5096   1.5213   1.5430   1.5544   1.5590   1.5783
  1.5826   1.6248   1.6425   1.6692   1.6898   1.6994   1.7155   1.7501
  1.7648   1.7755   1.8023   1.8267   1.9141   1.9265   1.9417   1.9766
  2.0042   2.0344   2.1078   2.1207   2.1716   2.1843   2.2231   2.2406
  2.2764   2.2828   2.3532   2.4128   2.4312   2.4792   2.4930   2.5469
  2.5626   2.5880   2.6135   2.6489   2.6755   2.6953   2.7040   2.7364
  2.7470   2.7721   2.7812   2.7935   2.8330   2.8450   2.8725   2.8931
  2.9143   2.9427   2.9655   2.9938   3.0077   3.0386   3.0513   3.0828
  3.0972   3.1100   3.1164   3.1349   3.1411   3.1563   3.1758   3.1822
  3.1963   3.2381   3.2476   3.2783   3.2886   3.2995   3.3110   3.3232
  3.3397   3.3556   3.3778   3.3858   3.4058   3.4137   3.4228   3.4359
  3.4521   3.4811   3.4981   3.5035   3.5220   3.5266   3.5318   3.5543
  3.5789   3.5895   3.6104   3.6184   3.6303   3.6428   3.6696   3.6901
  3.6954   3.7117   3.7223   3.7373   3.7498   3.7599   3.7905   3.7998
  3.8175   3.8390   3.8698   3.8710   3.8941   3.9033   3.9237   3.9526
  3.9969   4.0041   4.0283   4.0372   4.0444   4.0740   4.0893   4.1074
  4.1276   4.1589   4.1761   4.1916   4.2253   4.2339   4.2415   4.2752
  4.2952   4.3007   4.3214   4.3330   4.3478   4.3882   4.3995   4.4037
  4.4134   4.4229   4.4528   4.4717   4.4982   4.5158   4.5539   4.5697
  4.5986   4.6223   4.6443   4.6857   4.7133   4.7363   4.7539   4.7770
  4.8075   4.8212   4.8717   4.8871   4.8963   4.9247   5.0796   5.0908
  5.1064   5.1254   5.1573   5.1930   5.2167   5.2581   5.2890   5.3351
  5.3684   5.3991   5.4209   5.4476   5.4691   5.5093   5.5479   5.5676
  5.5925   5.6086   5.6210   5.6596   5.6963   5.8067   5.8293   5.8497
  5.9439   5.9638   6.0517   6.1703   6.2290   6.2493   6.2891   6.3715
  6.4391   6.5059   9.2119  11.4112  12.8645  13.6552  14.1829  14.4927
 --------------------------------------------------------------
 
          Ground-State Mulliken Net Atomic Charges

     Atom                 Charge (a.u.)
  ----------------------------------------
      1 C                     0.053801
      2 C                    -0.317972
      3 C                     0.060149
      4 H                     0.177787
      5 C                    -0.266445
      6 S                    -0.006390
      7 C                    -0.270194
      8 H                     0.101586
      9 H                     0.107831
     10 H                     0.106779
     11 C                    -0.370076
     12 H                     0.144266
     13 H                     0.150623
     14 H                     0.135653
     15 H                     0.192602
  ----------------------------------------
  Sum of atomic charges =     0.000000

 -----------------------------------------------------------------
                    Cartesian Multipole Moments
 -----------------------------------------------------------------
    Charge (ESU x 10^10)
                -0.0000
    Dipole Moment (Debye)
         X       1.3525      Y      -0.5128      Z       1.3008
       Tot       1.9454
    Quadrupole Moments (Debye-Ang)
        XX     -52.7168     XY       2.6833     YY     -44.3087
        XZ       0.3631     YZ       0.8074     ZZ     -48.5637
    Octopole Moments (Debye-Ang^2)
       XXX     -53.0142    XXY     -20.8137    XYY      -8.3550
       YYY     -71.9318    XXZ      -2.7329    XYZ      -2.2002
       YYZ      -5.2751    XZZ     -15.4894    YZZ     -21.7120
       ZZZ       1.8196
    Hexadecapole Moments (Debye-Ang^3)
      XXXX    -218.0832   XXXY    -135.4472   XXYY    -151.0636
      XYYY    -125.4871   YYYY    -676.8729   XXXZ     -47.4321
      XXYZ     -28.8074   XYYZ     -17.4983   YYYZ     -83.9490
      XXZZ    -120.5331   XYZZ     -37.2285   YYZZ    -189.4445
      XZZZ     -51.2675   YZZZ     -88.1279   ZZZZ    -484.0080
 -----------------------------------------------------------------
 Total job time:  158.78s(wall), 158.12s(cpu) 
 Sun Jul 10 10:57:09 2022

        *************************************************************
        *                                                           *
        *  Thank you very much for using Q-Chem.  Have a nice day.  *
        *                                                           *
        *************************************************************


remove work dirs ./qchem2194351.0 -- ./qchem2194351.-1
rm -rf ./qchem2194351
You are running Q-Chem version: 5.4.0

#
# job setting
#
local host:  exp-2-07
current dir: /expanse/lustre/scratch/theleonzhang/temp_project/Hydrogenated_Impropers_Test
input file:  Methylthiophene_Phi_30_Theta_340_Methylthiophene_Hydrogenated_Improper_Alternate.qcin
output file: 
nprocs     : 0
nthreads   : 1
#
# qchem installation setting
#
QC:          /cm/shared/apps/spack/cpu/opt/spack/linux-centos8-zen2/gcc-10.2.0/qchem-5.4-akfmr7b3t57bfs6qan3padb2wnb2i7cl
QCAUX:       /cm/shared/apps/spack/cpu/opt/spack/linux-centos8-zen2/gcc-10.2.0/qchem-5.4-akfmr7b3t57bfs6qan3padb2wnb2i7cl/qcaux
QCPROG:      /cm/shared/apps/spack/cpu/opt/spack/linux-centos8-zen2/gcc-10.2.0/qchem-5.4-akfmr7b3t57bfs6qan3padb2wnb2i7cl/exe/qcprog.exe_s
QCPROG_S:    /cm/shared/apps/spack/cpu/opt/spack/linux-centos8-zen2/gcc-10.2.0/qchem-5.4-akfmr7b3t57bfs6qan3padb2wnb2i7cl/exe/qcprog.exe_s
PARALLEL:    -DSERIAL
QCMPI:       mpich
#
# qchem directory setting
#
qcrun:       qchem1042291
QCSCRATCH:   .
QCLOCALSCR:  
QCTMPDIR:    .
QCFILEPREF:  ./qchem1042291
QCSAVEDIR:   
workdirs:    ./qchem1042291
workdir0:    ./qchem1042291
partmpdirs =  
#
# parallel setting
#
QCRSH:           ssh
QCMPI:           mpich
QCMPIRUN:        /cm/shared/apps/spack/cpu/opt/spack/linux-centos8-zen2/gcc-10.2.0/qchem-5.4-akfmr7b3t57bfs6qan3padb2wnb2i7cl/bin/mpi/mpirun_qchem
QCMACHINEFILE:   ./qchem1042291/hostfile

#
# env setting
#
exported envs:   QC QCAUX QCSCRATCH QCRUNNAME QCFILEPREF QCPROG QCPROG_S GUIFILE

Running Job 1 of 1 Methylthiophene_Phi_30_Theta_340_Methylthiophene_Hydrogenated_Improper_Alternate.qcin
qchem Methylthiophene_Phi_30_Theta_340_Methylthiophene_Hydrogenated_Improper_Alternate.qcin_1042291.0 ./qchem1042291/ 0
/cm/shared/apps/spack/cpu/opt/spack/linux-centos8-zen2/gcc-10.2.0/qchem-5.4-akfmr7b3t57bfs6qan3padb2wnb2i7cl/exe/qcprog.exe_s Methylthiophene_Phi_30_Theta_340_Methylthiophene_Hydrogenated_Improper_Alternate.qcin_1042291.0 ./qchem1042291/
                  Welcome to Q-Chem
     A Quantum Leap Into The Future Of Chemistry


 Q-Chem 5.4, Q-Chem, Inc., Pleasanton, CA (2021)

 License issued to: University of California, San Diego (site)

 E. Epifanovsky,  A. T. B. Gilbert,  Xintian Feng,  Joonho Lee,  Yuezhi Mao,  
 N. Mardirossian,  P. Pokhilko,  A. White,  M. Wormit,  M. P. Coons,  
 A. L. Dempwolff,  Zhengting Gan,  D. Hait,  P. R. Horn,  L. D. Jacobson,  
 I. Kaliman,  J. Kussmann,  A. W. Lange,  Ka Un Lao,  D. S. Levine,  Jie Liu,  
 S. C. McKenzie,  A. F. Morrison,  K. Nanda,  F. Plasser,  D. R. Rehn,  
 M. L. Vidal,  Zhi-Qiang You,  Ying Zhu,  B. Alam,  B. Albrecht,  
 A. Aldossary,  E. Alguire,  J. H. Andersen,  D. Barton,  K. Begam,  A. Behn,  
 Y. A. Bernard,  E. J. Berquist,  H. Burton,  A. Carreras,  K. Carter-Fenk,  
 R. Chakraborty,  A. D. Chien,  K. D. Closser,  V. Cofer-Shabica,  
 S. Dasgupta,  Jia Deng,  M. de Wergifosse,  M. Diedenhofen,  Hainam Do,  
 S. Ehlert,  Po-Tung Fang,  S. Fatehi,  Qingguo Feng,  J. Gayvert,  
 Qinghui Ge,  G. Gidofalvi,  M. Goldey,  J. Gomes,  C. Gonzalez-Espinoza,  
 S. Gulania,  A. Gunina,  M. W. D. Hanson-Heine,  P. H. P. Harbach,  
 A. W. Hauser,  M. F. Herbst,  M. Hernandez Vera,  M. Hodecker,  
 Z. C. Holden,  S. Houck,  Xunkun Huang,  Kerwin Hui,  B. C. Huynh,  
 M. Ivanov,  Hyunjun Ji,  Hanjie Jiang,  B. Kaduk,  S. Kaehler,  
 K. Khistyaev,  Jaehoon Kim,  P. Klunzinger,  Z. Koczor-Benda,  
 Joong Hoon Koh,  D. Kosenkov,  L. Koulias,  T. Kowalczyk,  C. M. Krauter,  
 K. Kue,  A. Kunitsa,  T. Kus,  A. Landau,  K. V. Lawler,  D. Lefrancois,  
 S. Lehtola,  Rain Li,  Yi-Pei Li,  Jiashu Liang,  M. Liebenthal,  
 Hung-Hsuan Lin,  You-Sheng Lin,  Fenglai Liu,  Kuan-Yu Liu,  
 M. Loipersberger,  A. Luenser,  A. Manjanath,  P. Manohar,  E. Mansoor,  
 S. F. Manzer,  Shan-Ping Mao,  A. V. Marenich,  T. Markovich,  S. Mason,  
 S. A. Maurer,  P. F. McLaughlin,  M. F. S. J. Menger,  J.-M. Mewes,  
 S. A. Mewes,  P. Morgante,  J. W. Mullinax,  T. S. Nguyen-Beck,  
 K. J. Oosterbaan,  G. Paran,  Alexander C. Paul,  Suranjan K. Paul,  
 F. Pavosevic,  Zheng Pei,  S. Prager,  E. I. Proynov,  E. Ramos,  B. Rana,  
 A. E. Rask,  A. Rettig,  R. M. Richard,  F. Rob,  E. Rossomme,  T. Scheele,  
 M. Scheurer,  M. Schneider,  N. Sergueev,  S. M. Sharada,  W. Skomorowski,  
 D. W. Small,  C. J. Stein,  Yu-Chuan Su,  E. J. Sundstrom,  Zhen Tao,  
 J. Thirman,  T. Tsuchimochi,  N. M. Tubman,  S. P. Veccham,  O. Vydrov,  
 J. Wenzel,  J. Witte,  A. Yamada,  Kun Yao,  S. Yeganeh,  S. R. Yost,  
 A. Zech,  Igor Ying Zhang,  Xing Zhang,  Yu Zhang,  D. Zuev,  
 A. Aspuru-Guzik,  A. T. Bell,  N. A. Besley,  K. B. Bravaya,  B. R. Brooks,  
 D. Casanova,  Jeng-Da Chai,  S. Coriani,  C. J. Cramer,  
 A. E. DePrince, III,  R. A. DiStasio Jr.,  A. Dreuw,  B. D. Dunietz,  
 T. R. Furlani,  W. A. Goddard III,  S. Grimme,  S. Hammes-Schiffer,  
 T. Head-Gordon,  W. J. Hehre,  Chao-Ping Hsu,  T.-C. Jagau,  Yousung Jung,  
 A. Klamt,  Jing Kong,  D. S. Lambrecht,  WanZhen Liang,  N. J. Mayhall,  
 C. W. McCurdy,  J. B. Neaton,  C. Ochsenfeld,  J. A. Parkhill,  R. Peverati,  
 V. A. Rassolov,  Yihan Shao,  L. V. Slipchenko,  T. Stauch,  R. P. Steele,  
 J. E. Subotnik,  A. J. W. Thom,  A. Tkatchenko,  D. G. Truhlar,  
 T. Van Voorhis,  T. A. Wesolowski,  K. B. Whaley,  H. L. Woodcock III,  
 P. M. Zimmerman,  S. Faraji,  P. M. W. Gill,  M. Head-Gordon,  
 J. M. Herbert,  A. I. Krylov

 Contributors to earlier versions of Q-Chem not listed above: 
 R. D. Adamson,  B. Austin,  R. Baer,  J. Baker,  G. J. O. Beran,  
 K. Brandhorst,  S. T. Brown,  E. F. C. Byrd,  A. K. Chakraborty,  
 G. K. L. Chan,  Chun-Min Chang,  Yunqing Chen,  C.-L. Cheng,  
 Siu Hung Chien,  D. M. Chipman,  D. L. Crittenden,  H. Dachsel,  
 R. J. Doerksen,  A. D. Dutoi,  R. G. Edgar,  J. Fosso-Tande,  
 L. Fusti-Molnar,  D. Ghosh,  A. Ghysels,  A. Golubeva-Zadorozhnaya,  
 J. Gonthier,  M. S. Gordon,  S. R. Gwaltney,  G. Hawkins,  J. E. Herr,  
 A. Heyden,  S. Hirata,  E. G. Hohenstein,  G. Kedziora,  F. J. Keil,  
 C. Kelley,  Jihan Kim,  R. A. King,  R. Z. Khaliullin,  P. P. Korambath,  
 W. Kurlancheek,  A. Laurent,  A. M. Lee,  M. S. Lee,  S. V. Levchenko,  
 Ching Yeh Lin,  D. Liotard,  E. Livshits,  R. C. Lochan,  I. Lotan,  
 L. A. Martinez-Martinez,  P. E. Maslen,  N. Nair,  D. P. O'Neill,  
 D. Neuhauser,  E. Neuscamman,  C. M. Oana,  R. Olivares-Amaya,  R. Olson,  
 T. M. Perrine,  B. Peters,  P. A. Pieniazek,  A. Prociuk,  Y. M. Rhee,  
 J. Ritchie,  M. A. Rohrdanz,  E. Rosta,  N. J. Russ,  H. F. Schaefer III,  
 M. W. Schmidt,  N. E. Schultz,  S. Sharma,  N. Shenvi,  C. D. Sherrill,  
 A. C. Simmonett,  A. Sodt,  T. Stein,  D. Stuck,  K. S. Thanthiriwatte,  
 V. Vanovschi,  L. Vogt,  Tao Wang,  A. Warshel,  M. A. Watson,  
 C. F. Williams,  Q. Wu,  X. Xu,  Jun Yang,  W. Zhang,  Yan Zhao

 Please cite Q-Chem as follows:
 Y. Shao et al., Mol. Phys. 113, 184-215 (2015)
 DOI: 10.1080/00268976.2014.952696

 Q-Chem 5.4.0 for Intel X86 EM64T Linux

 Parts of Q-Chem use Armadillo 9.800.1 (Horizon Scraper).
 http://arma.sourceforge.net/

 Q-Chem begins on Sun Jul 10 11:35:46 2022  

 Host: 
0

     Scratch files written to ./qchem1042291//
 May1621 |scratch|qcdevops|jenkins|workspace|build_RNUM    
 Processing $rem in /cm/shared/apps/spack/cpu/opt/spack/linux-centos8-zen2/gcc-10.2.0/qchem-5.4-akfmr7b3t57bfs6qan3padb2wnb2i7cl/config/preferences:
 Processing $rem in /home/theleonzhang/.qchemrc:
 Symmetry turned off for PCM/SM12/SMD calculation
 Core orbitals will be frozen

 Checking the input file for inconsistencies... 	...done.

--------------------------------------------------------------
User input:
--------------------------------------------------------------
$molecule
0 1
C	-0.343933	-0.485419	0.016151
C	0.087867	0.262481	1.115551
C	0.779867	1.460981	0.792851
H	-0.096533	-0.056919	2.152251
C	0.890167	1.652081	-0.596349
S	0.127267	0.330681	-1.470649
C	1.323767	2.402981	1.830751
H	1.110967	2.034381	2.852851
H	0.878067	3.415781	1.742351
H	2.423767	2.523381	1.742351
C	-0.343933	-1.926119	0.016151
H	0.670967	-1.926319	-0.353149
H	-0.624033	-2.629919	-0.753649
H	-0.020033	-2.445019	0.906151
H	1.364867	2.474081	-1.145449
$end

$rem
JOBTYPE		SP
EXCHANGE	HF
CORRELATION	pRIMP2
BASIS		cc-pvtz
METHOD		rimp2
AUX_BASIS	rimp2-cc-pvtz
SOLVENT_METHOD	PCM
PURECART	11111
SYMMETRY	false
MEM_TOTAL	110000
SCF_CONVERGENCE = 6
THRESH=10
$end



$solvent
dielectric 4.90
$end
--------------------------------------------------------------
 ----------------------------------------------------------------
             Standard Nuclear Orientation (Angstroms)
    I     Atom           X                Y                Z
 ----------------------------------------------------------------
    1      C      -0.3439330000    -0.4854190000     0.0161510000
    2      C       0.0878670000     0.2624810000     1.1155510000
    3      C       0.7798670000     1.4609810000     0.7928510000
    4      H      -0.0965330000    -0.0569190000     2.1522510000
    5      C       0.8901670000     1.6520810000    -0.5963490000
    6      S       0.1272670000     0.3306810000    -1.4706490000
    7      C       1.3237670000     2.4029810000     1.8307510000
    8      H       1.1109670000     2.0343810000     2.8528510000
    9      H       0.8780670000     3.4157810000     1.7423510000
   10      H       2.4237670000     2.5233810000     1.7423510000
   11      C      -0.3439330000    -1.9261190000     0.0161510000
   12      H       0.6709670000    -1.9263190000    -0.3531490000
   13      H      -0.6240330000    -2.6299190000    -0.7536490000
   14      H      -0.0200330000    -2.4450190000     0.9061510000
   15      H       1.3648670000     2.4740810000    -1.1454490000
 ----------------------------------------------------------------
 Nuclear Repulsion Energy =         346.54993461 hartrees
 There are       30 alpha and       30 beta electrons

 Q-Chem warning in module forms1/BasisType.C, line 2236:

 You are not using the predefined 5D/6D in this basis set.

 Requested basis set is cc-pVTZ
 There are 120 shells and 326 basis functions

 Total QAlloc Memory Limit 110000 MB
 Mega-Array Size       188 MB
 MEM_STATIC part       192 MB
 Discretize the solute cavity surface with Lebedev spheres
	Using 110 Lebedev grid points for each H atom
	Using 194 Lebedev grid points for other atoms
	Atomic van der Waals radii will be scaled by 1.20
 Remove points where switching function is < 1.0e-08
 Keep 1051 surface tesserae and discard 1187 interior tesserae
 Molecular Surface Area = 157.864 Angst**2

                       Distance Matrix (Angstroms)
             C (  1)   C (  2)   C (  3)   H (  4)   C (  5)   S (  6)
   C (  2)  1.398029
   C (  3)  2.377953  1.421056
   H (  4)  2.192656  1.100348  2.218122
   C (  5)  2.543043  2.346332  1.406614  3.383646
   S (  6)  1.760291  2.587399  2.612833  3.650442  1.758555
   C (  7)  3.796953  2.573072  1.503472  2.858622  2.577339  4.077411
   H (  8)  4.063618  2.684134  2.163796  2.514445  3.477339  4.750043
   H (  9)  4.437613  3.310679  2.175416  3.630084  2.929215  4.517180
   H ( 10)  4.437658  3.310736  2.175466  3.630135  2.929268  4.517213
   C ( 11)  1.440700  2.486986  3.652210  2.849217  3.834276  2.743310
   H ( 12)  1.800721  2.699617  3.577566  3.218811  3.593347  2.576522
   H ( 13)  2.295632  3.516630  4.593262  3.916994  4.544565  3.137466
   H ( 14)  2.176475  2.717728  3.988673  2.694743  4.457824  3.657237
   H ( 15)  3.609425  3.410869  2.263980  4.406413  1.096602  2.496312
             C (  7)   H (  8)   H (  9)   H ( 10)   C ( 11)   H ( 12)
   H (  8)  1.107176
   H (  9)  1.110057  1.787657
   H ( 10)  1.110095  1.787673  1.784815
   C ( 11)  4.981476  5.084207  5.745341  5.517063
   H ( 12)  4.892689  5.114605  5.742129  5.221423  1.080002
   H ( 13)  5.983572  6.145955  6.710947  6.486571  1.079992  1.527245
   H ( 14)  5.115055  5.013365  5.987887  5.599677  1.079939  1.527209
   H ( 15)  2.977333  4.030410  3.076225  3.076213  4.861180  4.524683
             H ( 13)   H ( 14)
   H ( 14)  1.775934
   H ( 15)  5.491816  5.506774
 
 Requested basis set is rimp2-cc-pVTZ
 There are 250 shells and 848 basis functions
 A cutoff of  1.0D-10 yielded   6239 shell pairs
 There are     45795 function pairs (     58896 Cartesian)
 Smallest overlap matrix eigenvalue = 1.17E-04

 Scale SEOQF with 1.000000e-01/1.000000e-01/1.000000e-01

 Standard Electronic Orientation quadrupole field applied
 Nucleus-field energy     =     0.0000000011 hartrees
 Guess from superposition of atomic densities
 Warning:  Energy on first SCF cycle will be non-variational
 SAD guess density has 60.000000 electrons

 -----------------------------------------------------------------------
  General SCF calculation program by
  Eric Jon Sundstrom, Paul Horn, Yuezhi Mao, Dmitri Zuev, Alec White,
  David Stuck, Shaama M.S., Shane Yost, Joonho Lee, David Small,
  Daniel Levine, Susi Lehtola, Hugh Burton, Evgeny Epifanovsky,
  Bang C. Huynh
 -----------------------------------------------------------------------
 Hartree-Fock
 A restricted SCF calculation will be
 performed using DIIS
 SCF converges when DIIS error is below 1.0e-06
 ---------------------------------------
  Cycle       Energy         DIIS error
 ---------------------------------------
    1    -632.1292373533      2.93e-02  
    2    -629.3289680774      1.94e-03  
    3    -629.3992876253      6.83e-04  
    4    -629.4067725965      3.52e-04  
    5    -629.4089332301      6.35e-05  
    6    -629.4090699422      2.63e-05  
    7    -629.4091043590      1.16e-05  
    8    -629.4091141630      5.25e-06  
    9    -629.4091157986      1.76e-06  
   10    -629.4091160109      6.74e-07  Convergence criterion met
 ---------------------------------------
 SCF time:   CPU 145.58s  wall 146.00s 

************** Final PCM Free Energy Summary **************
 G_electrostatic  =      -0.00539190 hartree =      -3.38346761 kcal/mol
 G_cavitation     =       0.00000000 hartree =       0.00000000 kcal/mol
 G_dispersion     =       0.00000000 hartree =       0.00000000 kcal/mol
 G_repulsion      =       0.00000000 hartree =       0.00000000 kcal/mol
 --------------------------------------------------
 Non-electrostatic Free Energy =       0.00000000 hartree =       0.00000000 kcal/mol
 Total                         =      -0.00539190 hartree =      -3.38346761 kcal/mol
 --------------------------------------------------
 SCF Energy (H0 + V/2)                       =    -629.40911601 
 Solute Internal Energy (H0)                 =    -629.40372411 
 Total Free Energy (H0 + V/2 + non-elec)     =    -629.40911601 hartree
                                             = -394960.18143058 kcal/mol
***********************************************************

 SCF   energy in the final basis set =     -629.4091160109
 Total energy in the final basis set =     -629.4091160109


 --------------------------------------------------------------
  Generalized many-body perturbation theory program
  by Joonho Lee, Fazle Rob, Xintian Feng, Evgeny Epifanovsky

 No regularization used 
 (reg. param. = 0.0000e+00)
  (P|Q)^-1/2 Time:  CPU 0.48 s  wall 0.48 s

 In RI-MP2 calculation: 
 # of frozen core orbitals: 11

 Components of the RIMP2 correlation energy:
        aaaa    correlation energy =        -0.1456728205 a.u.
        abab    correlation energy =        -0.8875941823 a.u.
        bbbb    correlation energy =        -0.1456728205 a.u.
        non-Brillouin singles      =        -0.0000000000 a.u.
        total same-spin energy     =        -0.2913456409 a.u.
        total opposite-spin energy =        -0.8875941823 a.u.

 Total  RIMP2   correlation energy =        -1.1789398233 a.u.
        RIMP2         total energy =      -630.5880558342 a.u.

 RI-MP2 Energy Time:  CPU 11.10 s  wall 11.14 s
 
 --------------------------------------------------------------
 
                    Orbital Energies (a.u.)
 --------------------------------------------------------------
 
 Alpha MOs
 -- Occupied --
-91.9749 -11.2801 -11.2555 -11.2477 -11.2287 -11.2271 -11.2202  -8.9754
 -6.6563  -6.6557  -6.6551  -1.1644  -1.0569  -0.9960  -0.9418  -0.8814
 -0.7464  -0.7207  -0.6462  -0.5890  -0.5804  -0.5666  -0.5507  -0.5472
 -0.5077  -0.4946  -0.4623  -0.4525  -0.3399  -0.2894
 -- Virtual --
  0.0965   0.1448   0.1534   0.1758   0.1867   0.1954   0.2097   0.2161
  0.2224   0.2462   0.2513   0.2581   0.2956   0.3282   0.3441   0.3470
  0.3781   0.3978   0.4038   0.4239   0.4371   0.4606   0.4642   0.4754
  0.4875   0.4937   0.5264   0.5286   0.5426   0.5552   0.5608   0.5851
  0.5918   0.6047   0.6075   0.6221   0.6315   0.6395   0.6441   0.6490
  0.6578   0.6702   0.6798   0.6924   0.7255   0.7523   0.7574   0.7887
  0.8078   0.8139   0.8385   0.8561   0.8611   0.8738   0.8938   0.9230
  0.9550   0.9680   1.0085   1.0235   1.0337   1.0572   1.0668   1.0764
  1.0799   1.0973   1.1222   1.1436   1.1528   1.1785   1.1994   1.2022
  1.2313   1.2430   1.2502   1.2597   1.2717   1.3036   1.3117   1.3380
  1.3512   1.3899   1.3964   1.4079   1.4304   1.4306   1.4483   1.4665
  1.4804   1.5024   1.5096   1.5213   1.5430   1.5544   1.5590   1.5783
  1.5826   1.6248   1.6425   1.6692   1.6898   1.6994   1.7155   1.7501
  1.7648   1.7755   1.8023   1.8267   1.9141   1.9265   1.9417   1.9766
  2.0042   2.0344   2.1078   2.1207   2.1716   2.1843   2.2231   2.2406
  2.2764   2.2828   2.3532   2.4128   2.4312   2.4792   2.4930   2.5469
  2.5626   2.5880   2.6135   2.6489   2.6755   2.6953   2.7040   2.7364
  2.7470   2.7721   2.7812   2.7935   2.8330   2.8450   2.8725   2.8931
  2.9143   2.9427   2.9655   2.9938   3.0077   3.0386   3.0513   3.0828
  3.0972   3.1100   3.1164   3.1349   3.1411   3.1563   3.1758   3.1822
  3.1963   3.2381   3.2476   3.2783   3.2886   3.2995   3.3110   3.3232
  3.3397   3.3556   3.3778   3.3858   3.4058   3.4137   3.4228   3.4359
  3.4521   3.4811   3.4981   3.5035   3.5220   3.5266   3.5318   3.5543
  3.5789   3.5895   3.6104   3.6184   3.6303   3.6428   3.6696   3.6901
  3.6954   3.7117   3.7223   3.7373   3.7498   3.7599   3.7905   3.7998
  3.8175   3.8390   3.8698   3.8710   3.8941   3.9033   3.9237   3.9526
  3.9969   4.0041   4.0283   4.0372   4.0444   4.0740   4.0893   4.1074
  4.1276   4.1589   4.1761   4.1916   4.2253   4.2339   4.2415   4.2752
  4.2952   4.3007   4.3214   4.3330   4.3478   4.3882   4.3995   4.4037
  4.4134   4.4229   4.4528   4.4717   4.4982   4.5158   4.5539   4.5697
  4.5986   4.6223   4.6443   4.6857   4.7133   4.7363   4.7539   4.7770
  4.8075   4.8212   4.8717   4.8871   4.8963   4.9247   5.0796   5.0908
  5.1064   5.1254   5.1573   5.1930   5.2167   5.2581   5.2890   5.3351
  5.3684   5.3991   5.4209   5.4476   5.4691   5.5093   5.5479   5.5676
  5.5925   5.6086   5.6210   5.6596   5.6963   5.8067   5.8293   5.8497
  5.9439   5.9638   6.0517   6.1703   6.2290   6.2493   6.2891   6.3715
  6.4391   6.5059   9.2119  11.4112  12.8645  13.6552  14.1829  14.4927
 --------------------------------------------------------------
 
          Ground-State Mulliken Net Atomic Charges

     Atom                 Charge (a.u.)
  ----------------------------------------
      1 C                     0.053801
      2 C                    -0.317972
      3 C                     0.060149
      4 H                     0.177787
      5 C                    -0.266445
      6 S                    -0.006390
      7 C                    -0.270194
      8 H                     0.101586
      9 H                     0.107831
     10 H                     0.106779
     11 C                    -0.370076
     12 H                     0.144266
     13 H                     0.150623
     14 H                     0.135653
     15 H                     0.192602
  ----------------------------------------
  Sum of atomic charges =     0.000000

 -----------------------------------------------------------------
                    Cartesian Multipole Moments
 -----------------------------------------------------------------
    Charge (ESU x 10^10)
                -0.0000
    Dipole Moment (Debye)
         X       1.3525      Y      -0.5128      Z       1.3008
       Tot       1.9454
    Quadrupole Moments (Debye-Ang)
        XX     -52.7168     XY       2.6833     YY     -44.3087
        XZ       0.3631     YZ       0.8074     ZZ     -48.5637
    Octopole Moments (Debye-Ang^2)
       XXX     -53.0142    XXY     -20.8137    XYY      -8.3550
       YYY     -71.9318    XXZ      -2.7329    XYZ      -2.2002
       YYZ      -5.2751    XZZ     -15.4894    YZZ     -21.7120
       ZZZ       1.8196
    Hexadecapole Moments (Debye-Ang^3)
      XXXX    -218.0832   XXXY    -135.4472   XXYY    -151.0636
      XYYY    -125.4871   YYYY    -676.8729   XXXZ     -47.4321
      XXYZ     -28.8074   XYYZ     -17.4983   YYYZ     -83.9490
      XXZZ    -120.5331   XYZZ     -37.2285   YYZZ    -189.4445
      XZZZ     -51.2675   YZZZ     -88.1279   ZZZZ    -484.0080
 -----------------------------------------------------------------
 Total job time:  158.15s(wall), 157.03s(cpu) 
 Sun Jul 10 11:38:24 2022

        *************************************************************
        *                                                           *
        *  Thank you very much for using Q-Chem.  Have a nice day.  *
        *                                                           *
        *************************************************************


remove work dirs ./qchem1042291.0 -- ./qchem1042291.-1
rm -rf ./qchem1042291
