You are running Q-Chem version: 5.4.0

#
# job setting
#
local host:  exp-4-11
current dir: /expanse/lustre/scratch/theleonzhang/temp_project/Hydrogenated_Impropers_Test
input file:  Methylthiophene_Phi_15_Theta_160_Methylthiophene_Hydrogenated_Improper.qcin
output file: 
nprocs     : 0
nthreads   : 1
#
# qchem installation setting
#
QC:          /cm/shared/apps/spack/cpu/opt/spack/linux-centos8-zen2/gcc-10.2.0/qchem-5.4-akfmr7b3t57bfs6qan3padb2wnb2i7cl
QCAUX:       /cm/shared/apps/spack/cpu/opt/spack/linux-centos8-zen2/gcc-10.2.0/qchem-5.4-akfmr7b3t57bfs6qan3padb2wnb2i7cl/qcaux
QCPROG:      /cm/shared/apps/spack/cpu/opt/spack/linux-centos8-zen2/gcc-10.2.0/qchem-5.4-akfmr7b3t57bfs6qan3padb2wnb2i7cl/exe/qcprog.exe_s
QCPROG_S:    /cm/shared/apps/spack/cpu/opt/spack/linux-centos8-zen2/gcc-10.2.0/qchem-5.4-akfmr7b3t57bfs6qan3padb2wnb2i7cl/exe/qcprog.exe_s
PARALLEL:    -DSERIAL
QCMPI:       mpich
#
# qchem directory setting
#
qcrun:       qchem3430536
QCSCRATCH:   .
QCLOCALSCR:  
QCTMPDIR:    .
QCFILEPREF:  ./qchem3430536
QCSAVEDIR:   
workdirs:    ./qchem3430536
workdir0:    ./qchem3430536
partmpdirs =  
#
# parallel setting
#
QCRSH:           ssh
QCMPI:           mpich
QCMPIRUN:        /cm/shared/apps/spack/cpu/opt/spack/linux-centos8-zen2/gcc-10.2.0/qchem-5.4-akfmr7b3t57bfs6qan3padb2wnb2i7cl/bin/mpi/mpirun_qchem
QCMACHINEFILE:   ./qchem3430536/hostfile

#
# env setting
#
exported envs:   QC QCAUX QCSCRATCH QCRUNNAME QCFILEPREF QCPROG QCPROG_S GUIFILE

Running Job 1 of 1 Methylthiophene_Phi_15_Theta_160_Methylthiophene_Hydrogenated_Improper.qcin
qchem Methylthiophene_Phi_15_Theta_160_Methylthiophene_Hydrogenated_Improper.qcin_3430536.0 ./qchem3430536/ 0
/cm/shared/apps/spack/cpu/opt/spack/linux-centos8-zen2/gcc-10.2.0/qchem-5.4-akfmr7b3t57bfs6qan3padb2wnb2i7cl/exe/qcprog.exe_s Methylthiophene_Phi_15_Theta_160_Methylthiophene_Hydrogenated_Improper.qcin_3430536.0 ./qchem3430536/
                  Welcome to Q-Chem
     A Quantum Leap Into The Future Of Chemistry


 Q-Chem 5.4, Q-Chem, Inc., Pleasanton, CA (2021)

 License issued to: University of California, San Diego (site)

 E. Epifanovsky,  A. T. B. Gilbert,  Xintian Feng,  Joonho Lee,  Yuezhi Mao,  
 N. Mardirossian,  P. Pokhilko,  A. White,  M. Wormit,  M. P. Coons,  
 A. L. Dempwolff,  Zhengting Gan,  D. Hait,  P. R. Horn,  L. D. Jacobson,  
 I. Kaliman,  J. Kussmann,  A. W. Lange,  Ka Un Lao,  D. S. Levine,  Jie Liu,  
 S. C. McKenzie,  A. F. Morrison,  K. Nanda,  F. Plasser,  D. R. Rehn,  
 M. L. Vidal,  Zhi-Qiang You,  Ying Zhu,  B. Alam,  B. Albrecht,  
 A. Aldossary,  E. Alguire,  J. H. Andersen,  D. Barton,  K. Begam,  A. Behn,  
 Y. A. Bernard,  E. J. Berquist,  H. Burton,  A. Carreras,  K. Carter-Fenk,  
 R. Chakraborty,  A. D. Chien,  K. D. Closser,  V. Cofer-Shabica,  
 S. Dasgupta,  Jia Deng,  M. de Wergifosse,  M. Diedenhofen,  Hainam Do,  
 S. Ehlert,  Po-Tung Fang,  S. Fatehi,  Qingguo Feng,  J. Gayvert,  
 Qinghui Ge,  G. Gidofalvi,  M. Goldey,  J. Gomes,  C. Gonzalez-Espinoza,  
 S. Gulania,  A. Gunina,  M. W. D. Hanson-Heine,  P. H. P. Harbach,  
 A. W. Hauser,  M. F. Herbst,  M. Hernandez Vera,  M. Hodecker,  
 Z. C. Holden,  S. Houck,  Xunkun Huang,  Kerwin Hui,  B. C. Huynh,  
 M. Ivanov,  Hyunjun Ji,  Hanjie Jiang,  B. Kaduk,  S. Kaehler,  
 K. Khistyaev,  Jaehoon Kim,  P. Klunzinger,  Z. Koczor-Benda,  
 Joong Hoon Koh,  D. Kosenkov,  L. Koulias,  T. Kowalczyk,  C. M. Krauter,  
 K. Kue,  A. Kunitsa,  T. Kus,  A. Landau,  K. V. Lawler,  D. Lefrancois,  
 S. Lehtola,  Rain Li,  Yi-Pei Li,  Jiashu Liang,  M. Liebenthal,  
 Hung-Hsuan Lin,  You-Sheng Lin,  Fenglai Liu,  Kuan-Yu Liu,  
 M. Loipersberger,  A. Luenser,  A. Manjanath,  P. Manohar,  E. Mansoor,  
 S. F. Manzer,  Shan-Ping Mao,  A. V. Marenich,  T. Markovich,  S. Mason,  
 S. A. Maurer,  P. F. McLaughlin,  M. F. S. J. Menger,  J.-M. Mewes,  
 S. A. Mewes,  P. Morgante,  J. W. Mullinax,  T. S. Nguyen-Beck,  
 K. J. Oosterbaan,  G. Paran,  Alexander C. Paul,  Suranjan K. Paul,  
 F. Pavosevic,  Zheng Pei,  S. Prager,  E. I. Proynov,  E. Ramos,  B. Rana,  
 A. E. Rask,  A. Rettig,  R. M. Richard,  F. Rob,  E. Rossomme,  T. Scheele,  
 M. Scheurer,  M. Schneider,  N. Sergueev,  S. M. Sharada,  W. Skomorowski,  
 D. W. Small,  C. J. Stein,  Yu-Chuan Su,  E. J. Sundstrom,  Zhen Tao,  
 J. Thirman,  T. Tsuchimochi,  N. M. Tubman,  S. P. Veccham,  O. Vydrov,  
 J. Wenzel,  J. Witte,  A. Yamada,  Kun Yao,  S. Yeganeh,  S. R. Yost,  
 A. Zech,  Igor Ying Zhang,  Xing Zhang,  Yu Zhang,  D. Zuev,  
 A. Aspuru-Guzik,  A. T. Bell,  N. A. Besley,  K. B. Bravaya,  B. R. Brooks,  
 D. Casanova,  Jeng-Da Chai,  S. Coriani,  C. J. Cramer,  
 A. E. DePrince, III,  R. A. DiStasio Jr.,  A. Dreuw,  B. D. Dunietz,  
 T. R. Furlani,  W. A. Goddard III,  S. Grimme,  S. Hammes-Schiffer,  
 T. Head-Gordon,  W. J. Hehre,  Chao-Ping Hsu,  T.-C. Jagau,  Yousung Jung,  
 A. Klamt,  Jing Kong,  D. S. Lambrecht,  WanZhen Liang,  N. J. Mayhall,  
 C. W. McCurdy,  J. B. Neaton,  C. Ochsenfeld,  J. A. Parkhill,  R. Peverati,  
 V. A. Rassolov,  Yihan Shao,  L. V. Slipchenko,  T. Stauch,  R. P. Steele,  
 J. E. Subotnik,  A. J. W. Thom,  A. Tkatchenko,  D. G. Truhlar,  
 T. Van Voorhis,  T. A. Wesolowski,  K. B. Whaley,  H. L. Woodcock III,  
 P. M. Zimmerman,  S. Faraji,  P. M. W. Gill,  M. Head-Gordon,  
 J. M. Herbert,  A. I. Krylov

 Contributors to earlier versions of Q-Chem not listed above: 
 R. D. Adamson,  B. Austin,  R. Baer,  J. Baker,  G. J. O. Beran,  
 K. Brandhorst,  S. T. Brown,  E. F. C. Byrd,  A. K. Chakraborty,  
 G. K. L. Chan,  Chun-Min Chang,  Yunqing Chen,  C.-L. Cheng,  
 Siu Hung Chien,  D. M. Chipman,  D. L. Crittenden,  H. Dachsel,  
 R. J. Doerksen,  A. D. Dutoi,  R. G. Edgar,  J. Fosso-Tande,  
 L. Fusti-Molnar,  D. Ghosh,  A. Ghysels,  A. Golubeva-Zadorozhnaya,  
 J. Gonthier,  M. S. Gordon,  S. R. Gwaltney,  G. Hawkins,  J. E. Herr,  
 A. Heyden,  S. Hirata,  E. G. Hohenstein,  G. Kedziora,  F. J. Keil,  
 C. Kelley,  Jihan Kim,  R. A. King,  R. Z. Khaliullin,  P. P. Korambath,  
 W. Kurlancheek,  A. Laurent,  A. M. Lee,  M. S. Lee,  S. V. Levchenko,  
 Ching Yeh Lin,  D. Liotard,  E. Livshits,  R. C. Lochan,  I. Lotan,  
 L. A. Martinez-Martinez,  P. E. Maslen,  N. Nair,  D. P. O'Neill,  
 D. Neuhauser,  E. Neuscamman,  C. M. Oana,  R. Olivares-Amaya,  R. Olson,  
 T. M. Perrine,  B. Peters,  P. A. Pieniazek,  A. Prociuk,  Y. M. Rhee,  
 J. Ritchie,  M. A. Rohrdanz,  E. Rosta,  N. J. Russ,  H. F. Schaefer III,  
 M. W. Schmidt,  N. E. Schultz,  S. Sharma,  N. Shenvi,  C. D. Sherrill,  
 A. C. Simmonett,  A. Sodt,  T. Stein,  D. Stuck,  K. S. Thanthiriwatte,  
 V. Vanovschi,  L. Vogt,  Tao Wang,  A. Warshel,  M. A. Watson,  
 C. F. Williams,  Q. Wu,  X. Xu,  Jun Yang,  W. Zhang,  Yan Zhao

 Please cite Q-Chem as follows:
 Y. Shao et al., Mol. Phys. 113, 184-215 (2015)
 DOI: 10.1080/00268976.2014.952696

 Q-Chem 5.4.0 for Intel X86 EM64T Linux

 Parts of Q-Chem use Armadillo 9.800.1 (Horizon Scraper).
 http://arma.sourceforge.net/

 Q-Chem begins on Sun Jul 10 09:35:30 2022  

 Host: 
0

     Scratch files written to ./qchem3430536//
 May1621 |scratch|qcdevops|jenkins|workspace|build_RNUM    
 Processing $rem in /cm/shared/apps/spack/cpu/opt/spack/linux-centos8-zen2/gcc-10.2.0/qchem-5.4-akfmr7b3t57bfs6qan3padb2wnb2i7cl/config/preferences:
 Processing $rem in /home/theleonzhang/.qchemrc:
 Symmetry turned off for PCM/SM12/SMD calculation
 Core orbitals will be frozen

 Checking the input file for inconsistencies... 	...done.

--------------------------------------------------------------
User input:
--------------------------------------------------------------
$molecule
0 1
C	-0.170818	-0.553189	0.013913
C	0.052682	0.281011	1.113313
C	0.410882	1.617711	0.790613
H	-0.042718	-0.075289	2.150013
C	0.468082	1.830811	-0.598587
S	0.073082	0.357111	-1.472887
C	0.692482	2.668411	1.828513
H	0.582282	2.257311	2.850613
H	-0.000118	3.531411	1.740113
H	1.723782	3.069411	1.740113
C	-0.170818	-1.993889	0.013913
H	-1.185718	-1.994089	0.383213
H	0.109282	-2.697689	0.783713
H	-0.494718	-2.512789	-0.876087
H	0.713782	2.747711	-1.147687
$end

$rem
JOBTYPE		SP
EXCHANGE	HF
CORRELATION	pRIMP2
BASIS		cc-pvtz
METHOD		rimp2
AUX_BASIS	rimp2-cc-pvtz
SOLVENT_METHOD	PCM
PURECART	11111
SYMMETRY	false
MEM_TOTAL	110000
SCF_CONVERGENCE = 6
THRESH=10
$end



$solvent
dielectric 4.90
$end
--------------------------------------------------------------
 ----------------------------------------------------------------
             Standard Nuclear Orientation (Angstroms)
    I     Atom           X                Y                Z
 ----------------------------------------------------------------
    1      C      -0.1708180000    -0.5531890000     0.0139130000
    2      C       0.0526820000     0.2810110000     1.1133130000
    3      C       0.4108820000     1.6177110000     0.7906130000
    4      H      -0.0427180000    -0.0752890000     2.1500130000
    5      C       0.4680820000     1.8308110000    -0.5985870000
    6      S       0.0730820000     0.3571110000    -1.4728870000
    7      C       0.6924820000     2.6684110000     1.8285130000
    8      H       0.5822820000     2.2573110000     2.8506130000
    9      H      -0.0001180000     3.5314110000     1.7401130000
   10      H       1.7237820000     3.0694110000     1.7401130000
   11      C      -0.1708180000    -1.9938890000     0.0139130000
   12      H      -1.1857180000    -1.9940890000     0.3832130000
   13      H       0.1092820000    -2.6976890000     0.7837130000
   14      H      -0.4947180000    -2.5127890000    -0.8760870000
   15      H       0.7137820000     2.7477110000    -1.1476870000
 ----------------------------------------------------------------
 Nuclear Repulsion Energy =         344.54159071 hartrees
 There are       30 alpha and       30 beta electrons

 Q-Chem warning in module forms1/BasisType.C, line 2236:

 You are not using the predefined 5D/6D in this basis set.

 Requested basis set is cc-pVTZ
 There are 120 shells and 326 basis functions

 Total QAlloc Memory Limit 110000 MB
 Mega-Array Size       188 MB
 MEM_STATIC part       192 MB
 Discretize the solute cavity surface with Lebedev spheres
	Using 110 Lebedev grid points for each H atom
	Using 194 Lebedev grid points for other atoms
	Atomic van der Waals radii will be scaled by 1.20
 Remove points where switching function is < 1.0e-08
 Keep 1059 surface tesserae and discard 1179 interior tesserae
 Molecular Surface Area = 158.378 Angst**2

                       Distance Matrix (Angstroms)
             C (  1)   C (  2)   C (  3)   H (  4)   C (  5)   S (  6)
   C (  2)  1.398042
   C (  3)  2.377908  1.420989
   H (  4)  2.192652  1.100363  2.218101
   C (  5)  2.542991  2.346282  1.406613  3.383628
   S (  6)  1.760315  2.587400  2.612787  3.650450  1.758470
   C (  7)  3.796942  2.573040  1.503498  2.858631  2.577352  4.077377
   H (  8)  4.063611  2.684110  2.163808  2.514456  3.477344  4.750021
   H (  9)  4.437664  3.310705  2.175481  3.630168  2.929295  4.517179
   H ( 10)  4.437624  3.310684  2.175475  3.630107  2.929237  4.517162
   C ( 11)  1.440700  2.536494  3.739691  2.874084  3.925771  2.792358
   H ( 12)  1.800721  2.691238  3.969913  2.847775  4.281220  3.249281
   H ( 13)  2.295632  2.997414  4.325932  2.960889  4.748347  3.798073
   H ( 14)  2.176475  3.473137  4.545221  3.911904  4.457673  2.985782
   H ( 15)  3.609401  3.410833  2.263991  4.406410  1.096624  2.496241
             C (  7)   H (  8)   H (  9)   H ( 10)   C ( 11)   H ( 12)
   H (  8)  1.107175
   H (  9)  1.110080  1.787661
   H ( 10)  1.110043  1.787663  1.784734
   C ( 11)  5.076918  5.165920  5.791187  5.675058
   H ( 12)  5.230242  5.223819  5.811882  5.995448  1.080002
   H ( 13)  5.497887  5.389604  6.303043  6.064714  1.079992  1.527245
   H ( 14)  5.963987  6.148339  6.604656  6.551885  1.079939  1.527209
   H ( 15)  2.977332  4.030408  3.076236  3.076196  4.961311  5.332581
             H ( 13)   H ( 14)
   H ( 14)  1.775934
   H ( 15)  5.809312  5.404359
 
 Requested basis set is rimp2-cc-pVTZ
 There are 250 shells and 848 basis functions
 A cutoff of  1.0D-10 yielded   6165 shell pairs
 There are     45151 function pairs (     58050 Cartesian)
 Smallest overlap matrix eigenvalue = 9.42E-05

 Scale SEOQF with 1.000000e-01/1.000000e-01/1.000000e-01

 Standard Electronic Orientation quadrupole field applied
 Nucleus-field energy     =     0.0000000021 hartrees
 Guess from superposition of atomic densities
 Warning:  Energy on first SCF cycle will be non-variational
 SAD guess density has 60.000000 electrons

 -----------------------------------------------------------------------
  General SCF calculation program by
  Eric Jon Sundstrom, Paul Horn, Yuezhi Mao, Dmitri Zuev, Alec White,
  David Stuck, Shaama M.S., Shane Yost, Joonho Lee, David Small,
  Daniel Levine, Susi Lehtola, Hugh Burton, Evgeny Epifanovsky,
  Bang C. Huynh
 -----------------------------------------------------------------------
 Hartree-Fock
 A restricted SCF calculation will be
 performed using DIIS
 SCF converges when DIIS error is below 1.0e-06
 ---------------------------------------
  Cycle       Energy         DIIS error
 ---------------------------------------
    1    -632.0981387037      2.92e-02  
    2    -629.3373763558      1.94e-03  
    3    -629.4075247925      6.91e-04  
    4    -629.4150653833      3.56e-04  
    5    -629.4172689392      6.25e-05  
    6    -629.4173987599      2.55e-05  
    7    -629.4174294795      1.11e-05  
    8    -629.4174380047      5.12e-06  
    9    -629.4174394907      1.70e-06  
   10    -629.4174396857      6.40e-07  Convergence criterion met
 ---------------------------------------
 SCF time:   CPU 143.28s  wall 144.00s 

************** Final PCM Free Energy Summary **************
 G_electrostatic  =      -0.00578020 hartree =      -3.62712915 kcal/mol
 G_cavitation     =       0.00000000 hartree =       0.00000000 kcal/mol
 G_dispersion     =       0.00000000 hartree =       0.00000000 kcal/mol
 G_repulsion      =       0.00000000 hartree =       0.00000000 kcal/mol
 --------------------------------------------------
 Non-electrostatic Free Energy =       0.00000000 hartree =       0.00000000 kcal/mol
 Total                         =      -0.00578020 hartree =      -3.62712915 kcal/mol
 --------------------------------------------------
 SCF Energy (H0 + V/2)                       =    -629.41743969 
 Solute Internal Energy (H0)                 =    -629.41165949 
 Total Free Energy (H0 + V/2 + non-elec)     =    -629.41743969 hartree
                                             = -394965.40461533 kcal/mol
***********************************************************

 SCF   energy in the final basis set =     -629.4174396857
 Total energy in the final basis set =     -629.4174396857


 --------------------------------------------------------------
  Generalized many-body perturbation theory program
  by Joonho Lee, Fazle Rob, Xintian Feng, Evgeny Epifanovsky

 No regularization used 
 (reg. param. = 0.0000e+00)
  (P|Q)^-1/2 Time:  CPU 0.48 s  wall 0.48 s

 In RI-MP2 calculation: 
 # of frozen core orbitals: 11

 Components of the RIMP2 correlation energy:
        aaaa    correlation energy =        -0.1455465609 a.u.
        abab    correlation energy =        -0.8865395686 a.u.
        bbbb    correlation energy =        -0.1455465609 a.u.
        non-Brillouin singles      =        -0.0000000000 a.u.
        total same-spin energy     =        -0.2910931218 a.u.
        total opposite-spin energy =        -0.8865395686 a.u.

 Total  RIMP2   correlation energy =        -1.1776326904 a.u.
        RIMP2         total energy =      -630.5950723761 a.u.

 RI-MP2 Energy Time:  CPU 11.01 s  wall 11.04 s
 
 --------------------------------------------------------------
 
                    Orbital Energies (a.u.)
 --------------------------------------------------------------
 
 Alpha MOs
 -- Occupied --
-91.9778 -11.2817 -11.2510 -11.2472 -11.2265 -11.2256 -11.2193  -8.9776
 -6.6586  -6.6580  -6.6574  -1.1602  -1.0552  -0.9976  -0.9416  -0.8831
 -0.7432  -0.7199  -0.6490  -0.5861  -0.5735  -0.5668  -0.5576  -0.5446
 -0.5094  -0.4937  -0.4620  -0.4533  -0.3377  -0.2893
 -- Virtual --
  0.1089   0.1450   0.1475   0.1745   0.1843   0.1896   0.2082   0.2241
  0.2269   0.2423   0.2486   0.2591   0.2938   0.3206   0.3448   0.3517
  0.3872   0.3908   0.4033   0.4260   0.4335   0.4613   0.4712   0.4914
  0.5018   0.5036   0.5181   0.5350   0.5410   0.5601   0.5759   0.5852
  0.5980   0.6052   0.6128   0.6286   0.6320   0.6354   0.6451   0.6482
  0.6558   0.6657   0.6876   0.7070   0.7177   0.7503   0.7719   0.7869
  0.8217   0.8283   0.8386   0.8482   0.8686   0.8928   0.9145   0.9235
  0.9563   0.9848   1.0124   1.0156   1.0419   1.0484   1.0683   1.0699
  1.0807   1.0869   1.0982   1.1091   1.1519   1.1649   1.1771   1.2137
  1.2274   1.2484   1.2562   1.2694   1.2816   1.2943   1.3056   1.3323
  1.3600   1.3805   1.3934   1.4063   1.4274   1.4482   1.4623   1.4805
  1.4942   1.5162   1.5183   1.5303   1.5420   1.5642   1.5662   1.5913
  1.5972   1.6292   1.6351   1.6765   1.6951   1.7058   1.7144   1.7503
  1.7609   1.7982   1.8035   1.8319   1.8928   1.9072   1.9430   1.9638
  2.0091   2.0361   2.1035   2.1461   2.1770   2.1919   2.2165   2.2332
  2.2676   2.2993   2.3574   2.4160   2.4580   2.4740   2.5241   2.5340
  2.5642   2.5963   2.6271   2.6577   2.6783   2.7120   2.7382   2.7460
  2.7486   2.7676   2.7846   2.7992   2.8159   2.8289   2.8547   2.8579
  2.9038   2.9148   2.9555   2.9767   3.0119   3.0329   3.0466   3.0706
  3.0740   3.0907   3.1142   3.1403   3.1574   3.1629   3.1741   3.1858
  3.2099   3.2425   3.2665   3.2774   3.2903   3.3123   3.3147   3.3297
  3.3453   3.3719   3.3878   3.3936   3.4014   3.4128   3.4279   3.4345
  3.4562   3.4751   3.4834   3.4958   3.4989   3.5136   3.5353   3.5497
  3.5811   3.5882   3.6157   3.6259   3.6300   3.6509   3.6659   3.6859
  3.6961   3.7033   3.7105   3.7356   3.7559   3.7753   3.7912   3.7976
  3.8254   3.8357   3.8434   3.8888   3.8967   3.9206   3.9334   3.9499
  3.9681   3.9957   4.0128   4.0330   4.0481   4.0690   4.1012   4.1044
  4.1240   4.1432   4.1702   4.2038   4.2208   4.2244   4.2411   4.2671
  4.2908   4.3026   4.3142   4.3358   4.3438   4.3772   4.3893   4.4032
  4.4161   4.4230   4.4380   4.4502   4.4718   4.5246   4.5365   4.5556
  4.6100   4.6233   4.6545   4.6855   4.6958   4.7359   4.7570   4.7790
  4.8061   4.8278   4.8718   4.8994   4.9023   4.9682   5.0759   5.0958
  5.1180   5.1401   5.1822   5.1933   5.2013   5.2654   5.2881   5.3226
  5.3717   5.4062   5.4163   5.4379   5.4876   5.5288   5.5552   5.5671
  5.5747   5.6220   5.6246   5.6571   5.7029   5.8113   5.8336   5.8878
  5.9489   6.0086   6.0612   6.1529   6.2276   6.2550   6.3000   6.3868
  6.4425   6.6102   9.2225  11.4782  12.9472  13.7634  14.1717  14.6483
 --------------------------------------------------------------
 
          Ground-State Mulliken Net Atomic Charges

     Atom                 Charge (a.u.)
  ----------------------------------------
      1 C                     0.057957
      2 C                    -0.310895
      3 C                     0.053449
      4 H                     0.174820
      5 C                    -0.273640
      6 S                     0.004857
      7 C                    -0.273560
      8 H                     0.101311
      9 H                     0.107137
     10 H                     0.107195
     11 C                    -0.378130
     12 H                     0.138624
     13 H                     0.162166
     14 H                     0.136789
     15 H                     0.191920
  ----------------------------------------
  Sum of atomic charges =     0.000000

 -----------------------------------------------------------------
                    Cartesian Multipole Moments
 -----------------------------------------------------------------
    Charge (ESU x 10^10)
                -0.0000
    Dipole Moment (Debye)
         X      -0.3819      Y      -0.5696      Z       1.6635
       Tot       1.7993
    Quadrupole Moments (Debye-Ang)
        XX     -53.5434     XY       3.6600     YY     -42.5649
        XZ       0.2174     YZ      -0.3151     ZZ     -48.5310
    Octopole Moments (Debye-Ang^2)
       XXX     -27.6658    XXY     -28.9951    XYY      -6.9286
       YYY     -79.9635    XXZ      -2.1456    XYZ      -1.2871
       YYZ      -2.4571    XZZ      -7.7463    YZZ     -25.0276
       ZZZ       0.6602
    Hexadecapole Moments (Debye-Ang^3)
      XXXX    -118.5538   XXXY     -84.4986   XXYY    -158.5511
      XYYY     -65.9137   YYYY    -776.0982   XXXZ     -24.0862
      XXYZ     -29.4190   XYYZ      -8.8054   YYYZ    -103.5538
      XXZZ    -107.2194   XYZZ     -22.5766   YYZZ    -205.1710
      XZZZ     -26.2940   YZZZ     -96.6853   ZZZZ    -484.1005
 -----------------------------------------------------------------
 Total job time:  155.49s(wall), 154.64s(cpu) 
 Sun Jul 10 09:38:06 2022

        *************************************************************
        *                                                           *
        *  Thank you very much for using Q-Chem.  Have a nice day.  *
        *                                                           *
        *************************************************************


remove work dirs ./qchem3430536.0 -- ./qchem3430536.-1
rm -rf ./qchem3430536
