You are running Q-Chem version: 5.4.0

#
# job setting
#
local host:  exp-4-11
current dir: /expanse/lustre/scratch/theleonzhang/temp_project/Hydrogenated_Impropers_Test
input file:  Methylthiophene_Phi_15_Theta_250_Methylthiophene_Hydrogenated_Improper.qcin
output file: 
nprocs     : 0
nthreads   : 1
#
# qchem installation setting
#
QC:          /cm/shared/apps/spack/cpu/opt/spack/linux-centos8-zen2/gcc-10.2.0/qchem-5.4-akfmr7b3t57bfs6qan3padb2wnb2i7cl
QCAUX:       /cm/shared/apps/spack/cpu/opt/spack/linux-centos8-zen2/gcc-10.2.0/qchem-5.4-akfmr7b3t57bfs6qan3padb2wnb2i7cl/qcaux
QCPROG:      /cm/shared/apps/spack/cpu/opt/spack/linux-centos8-zen2/gcc-10.2.0/qchem-5.4-akfmr7b3t57bfs6qan3padb2wnb2i7cl/exe/qcprog.exe_s
QCPROG_S:    /cm/shared/apps/spack/cpu/opt/spack/linux-centos8-zen2/gcc-10.2.0/qchem-5.4-akfmr7b3t57bfs6qan3padb2wnb2i7cl/exe/qcprog.exe_s
PARALLEL:    -DSERIAL
QCMPI:       mpich
#
# qchem directory setting
#
qcrun:       qchem3434820
QCSCRATCH:   .
QCLOCALSCR:  
QCTMPDIR:    .
QCFILEPREF:  ./qchem3434820
QCSAVEDIR:   
workdirs:    ./qchem3434820
workdir0:    ./qchem3434820
partmpdirs =  
#
# parallel setting
#
QCRSH:           ssh
QCMPI:           mpich
QCMPIRUN:        /cm/shared/apps/spack/cpu/opt/spack/linux-centos8-zen2/gcc-10.2.0/qchem-5.4-akfmr7b3t57bfs6qan3padb2wnb2i7cl/bin/mpi/mpirun_qchem
QCMACHINEFILE:   ./qchem3434820/hostfile

#
# env setting
#
exported envs:   QC QCAUX QCSCRATCH QCRUNNAME QCFILEPREF QCPROG QCPROG_S GUIFILE

Running Job 1 of 1 Methylthiophene_Phi_15_Theta_250_Methylthiophene_Hydrogenated_Improper.qcin
qchem Methylthiophene_Phi_15_Theta_250_Methylthiophene_Hydrogenated_Improper.qcin_3434820.0 ./qchem3434820/ 0
/cm/shared/apps/spack/cpu/opt/spack/linux-centos8-zen2/gcc-10.2.0/qchem-5.4-akfmr7b3t57bfs6qan3padb2wnb2i7cl/exe/qcprog.exe_s Methylthiophene_Phi_15_Theta_250_Methylthiophene_Hydrogenated_Improper.qcin_3434820.0 ./qchem3434820/
                  Welcome to Q-Chem
     A Quantum Leap Into The Future Of Chemistry


 Q-Chem 5.4, Q-Chem, Inc., Pleasanton, CA (2021)

 License issued to: University of California, San Diego (site)

 E. Epifanovsky,  A. T. B. Gilbert,  Xintian Feng,  Joonho Lee,  Yuezhi Mao,  
 N. Mardirossian,  P. Pokhilko,  A. White,  M. Wormit,  M. P. Coons,  
 A. L. Dempwolff,  Zhengting Gan,  D. Hait,  P. R. Horn,  L. D. Jacobson,  
 I. Kaliman,  J. Kussmann,  A. W. Lange,  Ka Un Lao,  D. S. Levine,  Jie Liu,  
 S. C. McKenzie,  A. F. Morrison,  K. Nanda,  F. Plasser,  D. R. Rehn,  
 M. L. Vidal,  Zhi-Qiang You,  Ying Zhu,  B. Alam,  B. Albrecht,  
 A. Aldossary,  E. Alguire,  J. H. Andersen,  D. Barton,  K. Begam,  A. Behn,  
 Y. A. Bernard,  E. J. Berquist,  H. Burton,  A. Carreras,  K. Carter-Fenk,  
 R. Chakraborty,  A. D. Chien,  K. D. Closser,  V. Cofer-Shabica,  
 S. Dasgupta,  Jia Deng,  M. de Wergifosse,  M. Diedenhofen,  Hainam Do,  
 S. Ehlert,  Po-Tung Fang,  S. Fatehi,  Qingguo Feng,  J. Gayvert,  
 Qinghui Ge,  G. Gidofalvi,  M. Goldey,  J. Gomes,  C. Gonzalez-Espinoza,  
 S. Gulania,  A. Gunina,  M. W. D. Hanson-Heine,  P. H. P. Harbach,  
 A. W. Hauser,  M. F. Herbst,  M. Hernandez Vera,  M. Hodecker,  
 Z. C. Holden,  S. Houck,  Xunkun Huang,  Kerwin Hui,  B. C. Huynh,  
 M. Ivanov,  Hyunjun Ji,  Hanjie Jiang,  B. Kaduk,  S. Kaehler,  
 K. Khistyaev,  Jaehoon Kim,  P. Klunzinger,  Z. Koczor-Benda,  
 Joong Hoon Koh,  D. Kosenkov,  L. Koulias,  T. Kowalczyk,  C. M. Krauter,  
 K. Kue,  A. Kunitsa,  T. Kus,  A. Landau,  K. V. Lawler,  D. Lefrancois,  
 S. Lehtola,  Rain Li,  Yi-Pei Li,  Jiashu Liang,  M. Liebenthal,  
 Hung-Hsuan Lin,  You-Sheng Lin,  Fenglai Liu,  Kuan-Yu Liu,  
 M. Loipersberger,  A. Luenser,  A. Manjanath,  P. Manohar,  E. Mansoor,  
 S. F. Manzer,  Shan-Ping Mao,  A. V. Marenich,  T. Markovich,  S. Mason,  
 S. A. Maurer,  P. F. McLaughlin,  M. F. S. J. Menger,  J.-M. Mewes,  
 S. A. Mewes,  P. Morgante,  J. W. Mullinax,  T. S. Nguyen-Beck,  
 K. J. Oosterbaan,  G. Paran,  Alexander C. Paul,  Suranjan K. Paul,  
 F. Pavosevic,  Zheng Pei,  S. Prager,  E. I. Proynov,  E. Ramos,  B. Rana,  
 A. E. Rask,  A. Rettig,  R. M. Richard,  F. Rob,  E. Rossomme,  T. Scheele,  
 M. Scheurer,  M. Schneider,  N. Sergueev,  S. M. Sharada,  W. Skomorowski,  
 D. W. Small,  C. J. Stein,  Yu-Chuan Su,  E. J. Sundstrom,  Zhen Tao,  
 J. Thirman,  T. Tsuchimochi,  N. M. Tubman,  S. P. Veccham,  O. Vydrov,  
 J. Wenzel,  J. Witte,  A. Yamada,  Kun Yao,  S. Yeganeh,  S. R. Yost,  
 A. Zech,  Igor Ying Zhang,  Xing Zhang,  Yu Zhang,  D. Zuev,  
 A. Aspuru-Guzik,  A. T. Bell,  N. A. Besley,  K. B. Bravaya,  B. R. Brooks,  
 D. Casanova,  Jeng-Da Chai,  S. Coriani,  C. J. Cramer,  
 A. E. DePrince, III,  R. A. DiStasio Jr.,  A. Dreuw,  B. D. Dunietz,  
 T. R. Furlani,  W. A. Goddard III,  S. Grimme,  S. Hammes-Schiffer,  
 T. Head-Gordon,  W. J. Hehre,  Chao-Ping Hsu,  T.-C. Jagau,  Yousung Jung,  
 A. Klamt,  Jing Kong,  D. S. Lambrecht,  WanZhen Liang,  N. J. Mayhall,  
 C. W. McCurdy,  J. B. Neaton,  C. Ochsenfeld,  J. A. Parkhill,  R. Peverati,  
 V. A. Rassolov,  Yihan Shao,  L. V. Slipchenko,  T. Stauch,  R. P. Steele,  
 J. E. Subotnik,  A. J. W. Thom,  A. Tkatchenko,  D. G. Truhlar,  
 T. Van Voorhis,  T. A. Wesolowski,  K. B. Whaley,  H. L. Woodcock III,  
 P. M. Zimmerman,  S. Faraji,  P. M. W. Gill,  M. Head-Gordon,  
 J. M. Herbert,  A. I. Krylov

 Contributors to earlier versions of Q-Chem not listed above: 
 R. D. Adamson,  B. Austin,  R. Baer,  J. Baker,  G. J. O. Beran,  
 K. Brandhorst,  S. T. Brown,  E. F. C. Byrd,  A. K. Chakraborty,  
 G. K. L. Chan,  Chun-Min Chang,  Yunqing Chen,  C.-L. Cheng,  
 Siu Hung Chien,  D. M. Chipman,  D. L. Crittenden,  H. Dachsel,  
 R. J. Doerksen,  A. D. Dutoi,  R. G. Edgar,  J. Fosso-Tande,  
 L. Fusti-Molnar,  D. Ghosh,  A. Ghysels,  A. Golubeva-Zadorozhnaya,  
 J. Gonthier,  M. S. Gordon,  S. R. Gwaltney,  G. Hawkins,  J. E. Herr,  
 A. Heyden,  S. Hirata,  E. G. Hohenstein,  G. Kedziora,  F. J. Keil,  
 C. Kelley,  Jihan Kim,  R. A. King,  R. Z. Khaliullin,  P. P. Korambath,  
 W. Kurlancheek,  A. Laurent,  A. M. Lee,  M. S. Lee,  S. V. Levchenko,  
 Ching Yeh Lin,  D. Liotard,  E. Livshits,  R. C. Lochan,  I. Lotan,  
 L. A. Martinez-Martinez,  P. E. Maslen,  N. Nair,  D. P. O'Neill,  
 D. Neuhauser,  E. Neuscamman,  C. M. Oana,  R. Olivares-Amaya,  R. Olson,  
 T. M. Perrine,  B. Peters,  P. A. Pieniazek,  A. Prociuk,  Y. M. Rhee,  
 J. Ritchie,  M. A. Rohrdanz,  E. Rosta,  N. J. Russ,  H. F. Schaefer III,  
 M. W. Schmidt,  N. E. Schultz,  S. Sharma,  N. Shenvi,  C. D. Sherrill,  
 A. C. Simmonett,  A. Sodt,  T. Stein,  D. Stuck,  K. S. Thanthiriwatte,  
 V. Vanovschi,  L. Vogt,  Tao Wang,  A. Warshel,  M. A. Watson,  
 C. F. Williams,  Q. Wu,  X. Xu,  Jun Yang,  W. Zhang,  Yan Zhao

 Please cite Q-Chem as follows:
 Y. Shao et al., Mol. Phys. 113, 184-215 (2015)
 DOI: 10.1080/00268976.2014.952696

 Q-Chem 5.4.0 for Intel X86 EM64T Linux

 Parts of Q-Chem use Armadillo 9.800.1 (Horizon Scraper).
 http://arma.sourceforge.net/

 Q-Chem begins on Sun Jul 10 09:58:52 2022  

 Host: 
0

     Scratch files written to ./qchem3434820//
 May1621 |scratch|qcdevops|jenkins|workspace|build_RNUM    
 Processing $rem in /cm/shared/apps/spack/cpu/opt/spack/linux-centos8-zen2/gcc-10.2.0/qchem-5.4-akfmr7b3t57bfs6qan3padb2wnb2i7cl/config/preferences:
 Processing $rem in /home/theleonzhang/.qchemrc:
 Symmetry turned off for PCM/SM12/SMD calculation
 Core orbitals will be frozen

 Checking the input file for inconsistencies... 	...done.

--------------------------------------------------------------
User input:
--------------------------------------------------------------
$molecule
0 1
C	-0.177773	-0.553191	0.010669
C	0.045727	0.281009	1.110069
C	0.403927	1.617709	0.787369
H	-0.049673	-0.075291	2.146769
C	0.461127	1.830809	-0.601831
S	0.066127	0.357109	-1.476131
C	0.685527	2.668409	1.825269
H	0.575327	2.257309	2.847369
H	-0.007073	3.531409	1.736869
H	1.716827	3.069409	1.736869
C	-0.177773	-1.993891	0.010669
H	0.191527	-1.993591	1.025569
H	-0.947573	-2.697691	0.290769
H	0.712227	-2.512791	-0.313231
H	0.706827	2.747709	-1.150931
$end

$rem
JOBTYPE		SP
EXCHANGE	HF
CORRELATION	pRIMP2
BASIS		cc-pvtz
METHOD		rimp2
AUX_BASIS	rimp2-cc-pvtz
SOLVENT_METHOD	PCM
PURECART	11111
SYMMETRY	false
MEM_TOTAL	110000
SCF_CONVERGENCE = 6
THRESH=10
$end



$solvent
dielectric 4.90
$end
--------------------------------------------------------------
 ----------------------------------------------------------------
             Standard Nuclear Orientation (Angstroms)
    I     Atom           X                Y                Z
 ----------------------------------------------------------------
    1      C      -0.1777730000    -0.5531910000     0.0106690000
    2      C       0.0457270000     0.2810090000     1.1100690000
    3      C       0.4039270000     1.6177090000     0.7873690000
    4      H      -0.0496730000    -0.0752910000     2.1467690000
    5      C       0.4611270000     1.8308090000    -0.6018310000
    6      S       0.0661270000     0.3571090000    -1.4761310000
    7      C       0.6855270000     2.6684090000     1.8252690000
    8      H       0.5753270000     2.2573090000     2.8473690000
    9      H      -0.0070730000     3.5314090000     1.7368690000
   10      H       1.7168270000     3.0694090000     1.7368690000
   11      C      -0.1777730000    -1.9938910000     0.0106690000
   12      H       0.1915270000    -1.9935910000     1.0255690000
   13      H      -0.9475730000    -2.6976910000     0.2907690000
   14      H       0.7122270000    -2.5127910000    -0.3132310000
   15      H       0.7068270000     2.7477090000    -1.1509310000
 ----------------------------------------------------------------
 Nuclear Repulsion Energy =         344.77295895 hartrees
 There are       30 alpha and       30 beta electrons

 Q-Chem warning in module forms1/BasisType.C, line 2236:

 You are not using the predefined 5D/6D in this basis set.

 Requested basis set is cc-pVTZ
 There are 120 shells and 326 basis functions

 Total QAlloc Memory Limit 110000 MB
 Mega-Array Size       188 MB
 MEM_STATIC part       192 MB
 Discretize the solute cavity surface with Lebedev spheres
	Using 110 Lebedev grid points for each H atom
	Using 194 Lebedev grid points for other atoms
	Atomic van der Waals radii will be scaled by 1.20
 Remove points where switching function is < 1.0e-08
 Keep 1052 surface tesserae and discard 1186 interior tesserae
 Molecular Surface Area = 158.144 Angst**2

                       Distance Matrix (Angstroms)
             C (  1)   C (  2)   C (  3)   H (  4)   C (  5)   S (  6)
   C (  2)  1.398042
   C (  3)  2.377908  1.420989
   H (  4)  2.192652  1.100363  2.218101
   C (  5)  2.542991  2.346282  1.406613  3.383628
   S (  6)  1.760315  2.587400  2.612787  3.650450  1.758470
   C (  7)  3.796942  2.573040  1.503498  2.858631  2.577352  4.077377
   H (  8)  4.063611  2.684110  2.163808  2.514456  3.477344  4.750021
   H (  9)  4.437664  3.310705  2.175481  3.630168  2.929295  4.517179
   H ( 10)  4.437624  3.310684  2.175475  3.630107  2.929237  4.517162
   C ( 11)  1.440700  2.536494  3.739691  2.874084  3.925771  2.792358
   H ( 12)  1.800321  2.280834  3.625375  2.234981  4.164991  3.435116
   H ( 13)  2.295632  3.245081  4.549268  3.335857  4.825814  3.671693
   H ( 14)  2.176475  3.205515  4.285720  3.545913  4.360413  3.163243
   H ( 15)  3.609401  3.410833  2.263991  4.406410  1.096624  2.496241
             C (  7)   H (  8)   H (  9)   H ( 10)   C ( 11)   H ( 12)
   H (  8)  1.107175
   H (  9)  1.110080  1.787661
   H ( 10)  1.110043  1.787663  1.784734
   C ( 11)  5.076918  5.165920  5.791187  5.675058
   H ( 12)  4.755817  4.640734  5.574138  5.335397  1.080002
   H ( 13)  5.815216  5.779918  6.463546  6.515342  1.079992  1.527494
   H ( 14)  5.605241  5.723809  6.422823  6.031011  1.079939  1.527443
   H ( 15)  2.977332  4.030408  3.076236  3.076196  4.961311  5.242386
             H ( 13)   H ( 14)
   H ( 14)  1.775934
   H ( 15)  5.870939  5.326784
 
 Requested basis set is rimp2-cc-pVTZ
 There are 250 shells and 848 basis functions
 A cutoff of  1.0D-10 yielded   6198 shell pairs
 There are     45442 function pairs (     58445 Cartesian)
 Smallest overlap matrix eigenvalue = 1.09E-04

 Scale SEOQF with 1.000000e-01/1.000000e-01/1.000000e-01

 Standard Electronic Orientation quadrupole field applied
 Nucleus-field energy     =     0.0000000021 hartrees
 Guess from superposition of atomic densities
 Warning:  Energy on first SCF cycle will be non-variational
 SAD guess density has 60.000000 electrons

 -----------------------------------------------------------------------
  General SCF calculation program by
  Eric Jon Sundstrom, Paul Horn, Yuezhi Mao, Dmitri Zuev, Alec White,
  David Stuck, Shaama M.S., Shane Yost, Joonho Lee, David Small,
  Daniel Levine, Susi Lehtola, Hugh Burton, Evgeny Epifanovsky,
  Bang C. Huynh
 -----------------------------------------------------------------------
 Hartree-Fock
 A restricted SCF calculation will be
 performed using DIIS
 SCF converges when DIIS error is below 1.0e-06
 ---------------------------------------
  Cycle       Energy         DIIS error
 ---------------------------------------
    1    -632.1142233426      2.92e-02  
    2    -629.3411777991      1.91e-03  
    3    -629.4107669357      6.39e-04  
    4    -629.4177670440      3.27e-04  
    5    -629.4196225253      6.24e-05  
    6    -629.4197512840      2.48e-05  
    7    -629.4197830755      1.14e-05  
    8    -629.4197922964      4.91e-06  
    9    -629.4197937922      1.72e-06  
   10    -629.4197939631      5.00e-07  Convergence criterion met
 ---------------------------------------
 SCF time:   CPU 143.84s  wall 145.00s 

************** Final PCM Free Energy Summary **************
 G_electrostatic  =      -0.00541942 hartree =      -3.40073944 kcal/mol
 G_cavitation     =       0.00000000 hartree =       0.00000000 kcal/mol
 G_dispersion     =       0.00000000 hartree =       0.00000000 kcal/mol
 G_repulsion      =       0.00000000 hartree =       0.00000000 kcal/mol
 --------------------------------------------------
 Non-electrostatic Free Energy =       0.00000000 hartree =       0.00000000 kcal/mol
 Total                         =      -0.00541942 hartree =      -3.40073944 kcal/mol
 --------------------------------------------------
 SCF Energy (H0 + V/2)                       =    -629.41979396 
 Solute Internal Energy (H0)                 =    -629.41437454 
 Total Free Energy (H0 + V/2 + non-elec)     =    -629.41979396 hartree
                                             = -394966.88194669 kcal/mol
***********************************************************

 SCF   energy in the final basis set =     -629.4197939631
 Total energy in the final basis set =     -629.4197939631


 --------------------------------------------------------------
  Generalized many-body perturbation theory program
  by Joonho Lee, Fazle Rob, Xintian Feng, Evgeny Epifanovsky

 No regularization used 
 (reg. param. = 0.0000e+00)
  (P|Q)^-1/2 Time:  CPU 0.48 s  wall 0.48 s

 In RI-MP2 calculation: 
 # of frozen core orbitals: 11

 Components of the RIMP2 correlation energy:
        aaaa    correlation energy =        -0.1457717453 a.u.
        abab    correlation energy =        -0.8871238137 a.u.
        bbbb    correlation energy =        -0.1457717453 a.u.
        non-Brillouin singles      =        -0.0000000000 a.u.
        total same-spin energy     =        -0.2915434906 a.u.
        total opposite-spin energy =        -0.8871238137 a.u.

 Total  RIMP2   correlation energy =        -1.1786673043 a.u.
        RIMP2         total energy =      -630.5984612674 a.u.

 RI-MP2 Energy Time:  CPU 11.05 s  wall 11.07 s
 
 --------------------------------------------------------------
 
                    Orbital Energies (a.u.)
 --------------------------------------------------------------
 
 Alpha MOs
 -- Occupied --
-91.9758 -11.2773 -11.2570 -11.2470 -11.2331 -11.2274 -11.2159  -8.9758
 -6.6568  -6.6562  -6.6557  -1.1617  -1.0542  -0.9994  -0.9392  -0.8840
 -0.7424  -0.7241  -0.6484  -0.5914  -0.5770  -0.5663  -0.5593  -0.5422
 -0.5103  -0.4835  -0.4682  -0.4407  -0.3370  -0.3018
 -- Virtual --
  0.1012   0.1446   0.1522   0.1769   0.1876   0.1887   0.2020   0.2249
  0.2360   0.2454   0.2481   0.2707   0.3018   0.3168   0.3435   0.3611
  0.3737   0.3942   0.4096   0.4145   0.4347   0.4593   0.4705   0.4819
  0.4954   0.5009   0.5183   0.5327   0.5390   0.5432   0.5665   0.5912
  0.6011   0.6055   0.6193   0.6342   0.6394   0.6425   0.6459   0.6505
  0.6564   0.6681   0.6823   0.6981   0.7372   0.7508   0.7583   0.7724
  0.8039   0.8213   0.8397   0.8460   0.8669   0.8860   0.9125   0.9202
  0.9467   0.9651   1.0025   1.0120   1.0283   1.0501   1.0665   1.0730
  1.0791   1.0977   1.1209   1.1554   1.1656   1.1841   1.1924   1.2101
  1.2181   1.2195   1.2531   1.2596   1.2647   1.2919   1.3123   1.3358
  1.3420   1.3780   1.3944   1.4118   1.4271   1.4346   1.4672   1.4780
  1.4924   1.5075   1.5234   1.5327   1.5506   1.5651   1.5730   1.5846
  1.5976   1.6308   1.6495   1.6636   1.6803   1.7103   1.7112   1.7452
  1.7604   1.7877   1.8151   1.8182   1.8901   1.9139   1.9312   1.9508
  1.9942   2.0398   2.0983   2.1354   2.1780   2.1938   2.2207   2.2331
  2.2592   2.2863   2.3520   2.4117   2.4596   2.4963   2.5318   2.5663
  2.5736   2.6056   2.6320   2.6497   2.6780   2.6862   2.7149   2.7387
  2.7466   2.7536   2.7854   2.8012   2.8306   2.8437   2.8503   2.8786
  2.8946   2.9266   2.9436   2.9547   2.9719   3.0118   3.0415   3.0527
  3.0905   3.1086   3.1160   3.1489   3.1559   3.1724   3.1905   3.1941
  3.2269   3.2499   3.2535   3.2725   3.2812   3.2977   3.3259   3.3284
  3.3422   3.3677   3.3754   3.4015   3.4078   3.4274   3.4296   3.4424
  3.4517   3.4650   3.4749   3.4856   3.5051   3.5238   3.5441   3.5567
  3.5887   3.5948   3.6013   3.6214   3.6361   3.6679   3.6732   3.6783
  3.6943   3.6991   3.7162   3.7367   3.7562   3.7686   3.7821   3.7902
  3.7997   3.8549   3.8644   3.8685   3.8936   3.9117   3.9456   3.9572
  3.9741   3.9822   4.0075   4.0247   4.0615   4.0666   4.0943   4.1084
  4.1389   4.1485   4.1516   4.1609   4.2040   4.2193   4.2232   4.2317
  4.2689   4.2869   4.2999   4.3290   4.3510   4.3775   4.3984   4.4020
  4.4192   4.4287   4.4366   4.4687   4.4874   4.5085   4.5560   4.5774
  4.6023   4.6381   4.6609   4.6798   4.7248   4.7440   4.7923   4.8029
  4.8145   4.8272   4.8604   4.8620   4.9416   4.9483   5.0890   5.0941
  5.1062   5.1344   5.1873   5.1992   5.2496   5.2595   5.2881   5.3095
  5.3661   5.4001   5.4066   5.4445   5.4568   5.4993   5.5489   5.5669
  5.5943   5.6245   5.6305   5.6932   5.7341   5.8277   5.8400   5.8704
  5.8937   6.0071   6.0569   6.1227   6.2275   6.2462   6.2880   6.3666
  6.4013   6.4662   9.1776  11.4599  12.9240  13.8514  14.1922  14.3951
 --------------------------------------------------------------
 
          Ground-State Mulliken Net Atomic Charges

     Atom                 Charge (a.u.)
  ----------------------------------------
      1 C                     0.055148
      2 C                    -0.269264
      3 C                     0.032910
      4 H                     0.176551
      5 C                    -0.251946
      6 S                    -0.006572
      7 C                    -0.272875
      8 H                     0.101128
      9 H                     0.107183
     10 H                     0.107066
     11 C                    -0.378097
     12 H                     0.127515
     13 H                     0.144954
     14 H                     0.133483
     15 H                     0.192817
  ----------------------------------------
  Sum of atomic charges =     0.000000

 -----------------------------------------------------------------
                    Cartesian Multipole Moments
 -----------------------------------------------------------------
    Charge (ESU x 10^10)
                -0.0000
    Dipole Moment (Debye)
         X       0.6270      Y      -0.1224      Z       2.1063
       Tot       2.2010
    Quadrupole Moments (Debye-Ang)
        XX     -53.3200     XY       1.7554     YY     -42.8986
        XZ      -0.2461     YZ      -1.0645     ZZ     -48.8345
    Octopole Moments (Debye-Ang^2)
       XXX     -28.5576    XXY     -29.8706    XYY      -3.9297
       YYY     -76.6040    XXZ      -2.2699    XYZ       0.1939
       YYZ      -1.7695    XZZ      -8.0419    YZZ     -22.9906
       ZZZ       0.8685
    Hexadecapole Moments (Debye-Ang^3)
      XXXX    -116.6978   XXXY     -79.3139   XXYY    -153.7534
      XYYY     -66.8127   YYYY    -779.7025   XXXZ     -23.4970
      XXYZ     -29.2987   XYYZ     -13.8956   YYYZ    -104.1105
      XXZZ    -106.6449   XYZZ     -21.5795   YYZZ    -211.2393
      XZZZ     -25.4194   YZZZ     -94.0417   ZZZZ    -482.7672
 -----------------------------------------------------------------
 Total job time:  156.26s(wall), 155.24s(cpu) 
 Sun Jul 10 10:01:28 2022

        *************************************************************
        *                                                           *
        *  Thank you very much for using Q-Chem.  Have a nice day.  *
        *                                                           *
        *************************************************************


remove work dirs ./qchem3434820.0 -- ./qchem3434820.-1
rm -rf ./qchem3434820
