You are running Q-Chem version: 5.4.0

#
# job setting
#
local host:  exp-5-33
current dir: /expanse/lustre/scratch/theleonzhang/temp_project/Hydrogenated_Impropers_Test
input file:  Methylthiophene_Phi_5_Theta_0_Methylthiophene_Hydrogenated_Improper_Alternate.qcin
output file: 
nprocs     : 0
nthreads   : 1
#
# qchem installation setting
#
QC:          /cm/shared/apps/spack/cpu/opt/spack/linux-centos8-zen2/gcc-10.2.0/qchem-5.4-akfmr7b3t57bfs6qan3padb2wnb2i7cl
QCAUX:       /cm/shared/apps/spack/cpu/opt/spack/linux-centos8-zen2/gcc-10.2.0/qchem-5.4-akfmr7b3t57bfs6qan3padb2wnb2i7cl/qcaux
QCPROG:      /cm/shared/apps/spack/cpu/opt/spack/linux-centos8-zen2/gcc-10.2.0/qchem-5.4-akfmr7b3t57bfs6qan3padb2wnb2i7cl/exe/qcprog.exe_s
QCPROG_S:    /cm/shared/apps/spack/cpu/opt/spack/linux-centos8-zen2/gcc-10.2.0/qchem-5.4-akfmr7b3t57bfs6qan3padb2wnb2i7cl/exe/qcprog.exe_s
PARALLEL:    -DSERIAL
QCMPI:       mpich
#
# qchem directory setting
#
qcrun:       qchem2167080
QCSCRATCH:   .
QCLOCALSCR:  
QCTMPDIR:    .
QCFILEPREF:  ./qchem2167080
QCSAVEDIR:   
workdirs:    ./qchem2167080
workdir0:    ./qchem2167080
partmpdirs =  
#
# parallel setting
#
QCRSH:           ssh
QCMPI:           mpich
QCMPIRUN:        /cm/shared/apps/spack/cpu/opt/spack/linux-centos8-zen2/gcc-10.2.0/qchem-5.4-akfmr7b3t57bfs6qan3padb2wnb2i7cl/bin/mpi/mpirun_qchem
QCMACHINEFILE:   ./qchem2167080/hostfile

#
# env setting
#
exported envs:   QC QCAUX QCSCRATCH QCRUNNAME QCFILEPREF QCPROG QCPROG_S GUIFILE

Running Job 1 of 1 Methylthiophene_Phi_5_Theta_0_Methylthiophene_Hydrogenated_Improper_Alternate.qcin
qchem Methylthiophene_Phi_5_Theta_0_Methylthiophene_Hydrogenated_Improper_Alternate.qcin_2167080.0 ./qchem2167080/ 0
/cm/shared/apps/spack/cpu/opt/spack/linux-centos8-zen2/gcc-10.2.0/qchem-5.4-akfmr7b3t57bfs6qan3padb2wnb2i7cl/exe/qcprog.exe_s Methylthiophene_Phi_5_Theta_0_Methylthiophene_Hydrogenated_Improper_Alternate.qcin_2167080.0 ./qchem2167080/
                  Welcome to Q-Chem
     A Quantum Leap Into The Future Of Chemistry


 Q-Chem 5.4, Q-Chem, Inc., Pleasanton, CA (2021)

 License issued to: University of California, San Diego (site)

 E. Epifanovsky,  A. T. B. Gilbert,  Xintian Feng,  Joonho Lee,  Yuezhi Mao,  
 N. Mardirossian,  P. Pokhilko,  A. White,  M. Wormit,  M. P. Coons,  
 A. L. Dempwolff,  Zhengting Gan,  D. Hait,  P. R. Horn,  L. D. Jacobson,  
 I. Kaliman,  J. Kussmann,  A. W. Lange,  Ka Un Lao,  D. S. Levine,  Jie Liu,  
 S. C. McKenzie,  A. F. Morrison,  K. Nanda,  F. Plasser,  D. R. Rehn,  
 M. L. Vidal,  Zhi-Qiang You,  Ying Zhu,  B. Alam,  B. Albrecht,  
 A. Aldossary,  E. Alguire,  J. H. Andersen,  D. Barton,  K. Begam,  A. Behn,  
 Y. A. Bernard,  E. J. Berquist,  H. Burton,  A. Carreras,  K. Carter-Fenk,  
 R. Chakraborty,  A. D. Chien,  K. D. Closser,  V. Cofer-Shabica,  
 S. Dasgupta,  Jia Deng,  M. de Wergifosse,  M. Diedenhofen,  Hainam Do,  
 S. Ehlert,  Po-Tung Fang,  S. Fatehi,  Qingguo Feng,  J. Gayvert,  
 Qinghui Ge,  G. Gidofalvi,  M. Goldey,  J. Gomes,  C. Gonzalez-Espinoza,  
 S. Gulania,  A. Gunina,  M. W. D. Hanson-Heine,  P. H. P. Harbach,  
 A. W. Hauser,  M. F. Herbst,  M. Hernandez Vera,  M. Hodecker,  
 Z. C. Holden,  S. Houck,  Xunkun Huang,  Kerwin Hui,  B. C. Huynh,  
 M. Ivanov,  Hyunjun Ji,  Hanjie Jiang,  B. Kaduk,  S. Kaehler,  
 K. Khistyaev,  Jaehoon Kim,  P. Klunzinger,  Z. Koczor-Benda,  
 Joong Hoon Koh,  D. Kosenkov,  L. Koulias,  T. Kowalczyk,  C. M. Krauter,  
 K. Kue,  A. Kunitsa,  T. Kus,  A. Landau,  K. V. Lawler,  D. Lefrancois,  
 S. Lehtola,  Rain Li,  Yi-Pei Li,  Jiashu Liang,  M. Liebenthal,  
 Hung-Hsuan Lin,  You-Sheng Lin,  Fenglai Liu,  Kuan-Yu Liu,  
 M. Loipersberger,  A. Luenser,  A. Manjanath,  P. Manohar,  E. Mansoor,  
 S. F. Manzer,  Shan-Ping Mao,  A. V. Marenich,  T. Markovich,  S. Mason,  
 S. A. Maurer,  P. F. McLaughlin,  M. F. S. J. Menger,  J.-M. Mewes,  
 S. A. Mewes,  P. Morgante,  J. W. Mullinax,  T. S. Nguyen-Beck,  
 K. J. Oosterbaan,  G. Paran,  Alexander C. Paul,  Suranjan K. Paul,  
 F. Pavosevic,  Zheng Pei,  S. Prager,  E. I. Proynov,  E. Ramos,  B. Rana,  
 A. E. Rask,  A. Rettig,  R. M. Richard,  F. Rob,  E. Rossomme,  T. Scheele,  
 M. Scheurer,  M. Schneider,  N. Sergueev,  S. M. Sharada,  W. Skomorowski,  
 D. W. Small,  C. J. Stein,  Yu-Chuan Su,  E. J. Sundstrom,  Zhen Tao,  
 J. Thirman,  T. Tsuchimochi,  N. M. Tubman,  S. P. Veccham,  O. Vydrov,  
 J. Wenzel,  J. Witte,  A. Yamada,  Kun Yao,  S. Yeganeh,  S. R. Yost,  
 A. Zech,  Igor Ying Zhang,  Xing Zhang,  Yu Zhang,  D. Zuev,  
 A. Aspuru-Guzik,  A. T. Bell,  N. A. Besley,  K. B. Bravaya,  B. R. Brooks,  
 D. Casanova,  Jeng-Da Chai,  S. Coriani,  C. J. Cramer,  
 A. E. DePrince, III,  R. A. DiStasio Jr.,  A. Dreuw,  B. D. Dunietz,  
 T. R. Furlani,  W. A. Goddard III,  S. Grimme,  S. Hammes-Schiffer,  
 T. Head-Gordon,  W. J. Hehre,  Chao-Ping Hsu,  T.-C. Jagau,  Yousung Jung,  
 A. Klamt,  Jing Kong,  D. S. Lambrecht,  WanZhen Liang,  N. J. Mayhall,  
 C. W. McCurdy,  J. B. Neaton,  C. Ochsenfeld,  J. A. Parkhill,  R. Peverati,  
 V. A. Rassolov,  Yihan Shao,  L. V. Slipchenko,  T. Stauch,  R. P. Steele,  
 J. E. Subotnik,  A. J. W. Thom,  A. Tkatchenko,  D. G. Truhlar,  
 T. Van Voorhis,  T. A. Wesolowski,  K. B. Whaley,  H. L. Woodcock III,  
 P. M. Zimmerman,  S. Faraji,  P. M. W. Gill,  M. Head-Gordon,  
 J. M. Herbert,  A. I. Krylov

 Contributors to earlier versions of Q-Chem not listed above: 
 R. D. Adamson,  B. Austin,  R. Baer,  J. Baker,  G. J. O. Beran,  
 K. Brandhorst,  S. T. Brown,  E. F. C. Byrd,  A. K. Chakraborty,  
 G. K. L. Chan,  Chun-Min Chang,  Yunqing Chen,  C.-L. Cheng,  
 Siu Hung Chien,  D. M. Chipman,  D. L. Crittenden,  H. Dachsel,  
 R. J. Doerksen,  A. D. Dutoi,  R. G. Edgar,  J. Fosso-Tande,  
 L. Fusti-Molnar,  D. Ghosh,  A. Ghysels,  A. Golubeva-Zadorozhnaya,  
 J. Gonthier,  M. S. Gordon,  S. R. Gwaltney,  G. Hawkins,  J. E. Herr,  
 A. Heyden,  S. Hirata,  E. G. Hohenstein,  G. Kedziora,  F. J. Keil,  
 C. Kelley,  Jihan Kim,  R. A. King,  R. Z. Khaliullin,  P. P. Korambath,  
 W. Kurlancheek,  A. Laurent,  A. M. Lee,  M. S. Lee,  S. V. Levchenko,  
 Ching Yeh Lin,  D. Liotard,  E. Livshits,  R. C. Lochan,  I. Lotan,  
 L. A. Martinez-Martinez,  P. E. Maslen,  N. Nair,  D. P. O'Neill,  
 D. Neuhauser,  E. Neuscamman,  C. M. Oana,  R. Olivares-Amaya,  R. Olson,  
 T. M. Perrine,  B. Peters,  P. A. Pieniazek,  A. Prociuk,  Y. M. Rhee,  
 J. Ritchie,  M. A. Rohrdanz,  E. Rosta,  N. J. Russ,  H. F. Schaefer III,  
 M. W. Schmidt,  N. E. Schultz,  S. Sharma,  N. Shenvi,  C. D. Sherrill,  
 A. C. Simmonett,  A. Sodt,  T. Stein,  D. Stuck,  K. S. Thanthiriwatte,  
 V. Vanovschi,  L. Vogt,  Tao Wang,  A. Warshel,  M. A. Watson,  
 C. F. Williams,  Q. Wu,  X. Xu,  Jun Yang,  W. Zhang,  Yan Zhao

 Please cite Q-Chem as follows:
 Y. Shao et al., Mol. Phys. 113, 184-215 (2015)
 DOI: 10.1080/00268976.2014.952696

 Q-Chem 5.4.0 for Intel X86 EM64T Linux

 Parts of Q-Chem use Armadillo 9.800.1 (Horizon Scraper).
 http://arma.sourceforge.net/

 Q-Chem begins on Sun Jul 10 09:45:18 2022  

 Host: 
0

     Scratch files written to ./qchem2167080//
 May1621 |scratch|qcdevops|jenkins|workspace|build_RNUM    
 Processing $rem in /cm/shared/apps/spack/cpu/opt/spack/linux-centos8-zen2/gcc-10.2.0/qchem-5.4-akfmr7b3t57bfs6qan3padb2wnb2i7cl/config/preferences:
 Processing $rem in /home/theleonzhang/.qchemrc:
 Symmetry turned off for PCM/SM12/SMD calculation
 Core orbitals will be frozen

 Checking the input file for inconsistencies... 	...done.

--------------------------------------------------------------
User input:
--------------------------------------------------------------
$molecule
0 1
C	-0.013746	-0.577121	0.014457
C	-0.013746	0.286479	1.113857
C	-0.013646	1.670379	0.791157
H	-0.013746	-0.082321	2.150557
C	-0.013646	1.891079	-0.598043
S	-0.013746	0.365279	-1.472343
C	-0.013646	2.758179	1.829057
H	-0.013646	2.332479	2.851157
H	-0.906046	3.412479	1.740657
H	0.878754	3.412379	1.740657
C	0.111854	-2.012321	0.014457
H	1.187754	-1.918421	0.014557
H	0.173254	-2.713421	-0.804743
H	0.157054	-2.529321	0.961557
H	-0.013646	2.840279	-1.147143
$end

$rem
JOBTYPE		SP
EXCHANGE	HF
CORRELATION	pRIMP2
BASIS		cc-pvtz
METHOD		rimp2
AUX_BASIS	rimp2-cc-pvtz
SOLVENT_METHOD	PCM
PURECART	11111
SYMMETRY	false
MEM_TOTAL	110000
SCF_CONVERGENCE = 6
THRESH=10
$end



$solvent
dielectric 4.90
$end
--------------------------------------------------------------
 ----------------------------------------------------------------
             Standard Nuclear Orientation (Angstroms)
    I     Atom           X                Y                Z
 ----------------------------------------------------------------
    1      C      -0.0137460000    -0.5771210000     0.0144570000
    2      C      -0.0137460000     0.2864790000     1.1138570000
    3      C      -0.0136460000     1.6703790000     0.7911570000
    4      H      -0.0137460000    -0.0823210000     2.1505570000
    5      C      -0.0136460000     1.8910790000    -0.5980430000
    6      S      -0.0137460000     0.3652790000    -1.4723430000
    7      C      -0.0136460000     2.7581790000     1.8290570000
    8      H      -0.0136460000     2.3324790000     2.8511570000
    9      H      -0.9060460000     3.4124790000     1.7406570000
   10      H       0.8787540000     3.4123790000     1.7406570000
   11      C       0.1118540000    -2.0123210000     0.0144570000
   12      H       1.1877540000    -1.9184210000     0.0145570000
   13      H       0.1732540000    -2.7134210000    -0.8047430000
   14      H       0.1570540000    -2.5293210000     0.9615570000
   15      H      -0.0136460000     2.8402790000    -1.1471430000
 ----------------------------------------------------------------
 Nuclear Repulsion Energy =         344.48221852 hartrees
 There are       30 alpha and       30 beta electrons

 Q-Chem warning in module forms1/BasisType.C, line 2236:

 You are not using the predefined 5D/6D in this basis set.

 Requested basis set is cc-pVTZ
 There are 120 shells and 326 basis functions

 Total QAlloc Memory Limit 110000 MB
 Mega-Array Size       188 MB
 MEM_STATIC part       192 MB
 Discretize the solute cavity surface with Lebedev spheres
	Using 110 Lebedev grid points for each H atom
	Using 194 Lebedev grid points for other atoms
	Atomic van der Waals radii will be scaled by 1.20
 Remove points where switching function is < 1.0e-08
 Keep 1062 surface tesserae and discard 1176 interior tesserae
 Molecular Surface Area = 159.642 Angst**2

                       Distance Matrix (Angstroms)
             C (  1)   C (  2)   C (  3)   H (  4)   C (  5)   S (  6)
   C (  2)  1.398029
   C (  3)  2.377923  1.421026
   H (  4)  2.192658  1.100346  2.218091
   C (  5)  2.543063  2.346347  1.406622  3.383653
   S (  6)  1.760310  2.587400  2.612799  3.650445  1.758541
   C (  7)  3.796972  2.573094  1.503511  2.858636  2.577339  4.077403
   H (  8)  4.063575  2.684088  2.163788  2.514379  3.477329  4.750003
   H (  9)  4.437665  3.310733  2.175509  3.630130  2.929258  4.517189
   H ( 10)  4.437616  3.310693  2.175429  3.630083  2.929206  4.517161
   C ( 11)  1.440685  2.551262  3.765806  2.881597  3.953155  2.807015
   H ( 12)  1.800746  2.741103  3.863412  3.062248  4.041155  2.978214
   H ( 13)  2.295612  3.565865  4.668997  3.961244  4.612925  3.155797
   H ( 14)  2.176524  2.825084  4.206620  2.725932  4.690568  3.785730
   H ( 15)  3.609423  3.410867  2.263995  4.406406  1.096582  2.496273
             C (  7)   H (  8)   H (  9)   H ( 10)   C ( 11)   H ( 12)
   H (  8)  1.107208
   H (  9)  1.110090  1.787733
   H ( 10)  1.110032  1.787672  1.784800
   C ( 11)  5.105506  5.190366  5.783108  5.744151
   H ( 12)  5.158135  5.249744  5.981799  5.611803  1.079990
   H ( 13)  6.075380  6.233911  6.720908  6.670998  1.080000  1.527248
   H ( 14)  5.360910  5.218891  6.086228  6.035863  1.079968  1.527203
   H ( 15)  2.977332  4.030417  3.076228  3.076210  4.991272  5.043623
             H ( 13)   H ( 14)
   H ( 14)  1.775942
   H ( 15)  5.567383  5.771339
 
 Requested basis set is rimp2-cc-pVTZ
 There are 250 shells and 848 basis functions
 A cutoff of  1.0D-10 yielded   6165 shell pairs
 There are     45151 function pairs (     58054 Cartesian)
 Smallest overlap matrix eigenvalue = 8.07E-05

 Scale SEOQF with 1.000000e+00/1.000000e-01/1.000000e-01

 Standard Electronic Orientation quadrupole field applied
 Nucleus-field energy     =     0.0000000034 hartrees
 Guess from superposition of atomic densities
 Warning:  Energy on first SCF cycle will be non-variational
 SAD guess density has 60.000000 electrons

 -----------------------------------------------------------------------
  General SCF calculation program by
  Eric Jon Sundstrom, Paul Horn, Yuezhi Mao, Dmitri Zuev, Alec White,
  David Stuck, Shaama M.S., Shane Yost, Joonho Lee, David Small,
  Daniel Levine, Susi Lehtola, Hugh Burton, Evgeny Epifanovsky,
  Bang C. Huynh
 -----------------------------------------------------------------------
 Hartree-Fock
 A restricted SCF calculation will be
 performed using DIIS
 SCF converges when DIIS error is below 1.0e-06
 ---------------------------------------
  Cycle       Energy         DIIS error
 ---------------------------------------
    1    -632.0967755254      2.91e-02  
    2    -629.3445823019      1.95e-03  
    3    -629.4150453398      7.11e-04  
    4    -629.4228405924      3.67e-04  
    5    -629.4251722551      6.17e-05  
    6    -629.4253050028      2.58e-05  
    7    -629.4253369459      1.11e-05  
    8    -629.4253457979      5.14e-06  
    9    -629.4253472448      1.69e-06  
   10    -629.4253474293      7.06e-07  Convergence criterion met
 ---------------------------------------
 SCF time:   CPU 144.44s  wall 145.00s 

************** Final PCM Free Energy Summary **************
 G_electrostatic  =      -0.00593301 hartree =      -3.72301826 kcal/mol
 G_cavitation     =       0.00000000 hartree =       0.00000000 kcal/mol
 G_dispersion     =       0.00000000 hartree =       0.00000000 kcal/mol
 G_repulsion      =       0.00000000 hartree =       0.00000000 kcal/mol
 --------------------------------------------------
 Non-electrostatic Free Energy =       0.00000000 hartree =       0.00000000 kcal/mol
 Total                         =      -0.00593301 hartree =      -3.72301826 kcal/mol
 --------------------------------------------------
 SCF Energy (H0 + V/2)                       =    -629.42534743 
 Solute Internal Energy (H0)                 =    -629.41941442 
 Total Free Energy (H0 + V/2 + non-elec)     =    -629.42534743 hartree
                                             = -394970.36679932 kcal/mol
***********************************************************

 SCF   energy in the final basis set =     -629.4253474293
 Total energy in the final basis set =     -629.4253474293


 --------------------------------------------------------------
  Generalized many-body perturbation theory program
  by Joonho Lee, Fazle Rob, Xintian Feng, Evgeny Epifanovsky

 No regularization used 
 (reg. param. = 0.0000e+00)
  (P|Q)^-1/2 Time:  CPU 0.51 s  wall 0.51 s

 In RI-MP2 calculation: 
 # of frozen core orbitals: 11

 Components of the RIMP2 correlation energy:
        aaaa    correlation energy =        -0.1450728770 a.u.
        abab    correlation energy =        -0.8848771278 a.u.
        bbbb    correlation energy =        -0.1450728770 a.u.
        non-Brillouin singles      =        -0.0000000000 a.u.
        total same-spin energy     =        -0.2901457540 a.u.
        total opposite-spin energy =        -0.8848771278 a.u.

 Total  RIMP2   correlation energy =        -1.1750228817 a.u.
        RIMP2         total energy =      -630.6003703110 a.u.

 RI-MP2 Energy Time:  CPU 12.60 s  wall 12.63 s
 
 --------------------------------------------------------------
 
                    Orbital Energies (a.u.)
 --------------------------------------------------------------
 
 Alpha MOs
 -- Occupied --
-91.9777 -11.2869 -11.2482 -11.2469 -11.2264 -11.2230 -11.2229  -8.9776
 -6.6586  -6.6580  -6.6574  -1.1604  -1.0565  -0.9975  -0.9417  -0.8827
 -0.7438  -0.7186  -0.6479  -0.5896  -0.5758  -0.5699  -0.5525  -0.5459
 -0.5075  -0.4934  -0.4663  -0.4565  -0.3386  -0.2882
 -- Virtual --
  0.1144   0.1451   0.1479   0.1747   0.1883   0.1940   0.2116   0.2186
  0.2233   0.2414   0.2463   0.2582   0.2962   0.3297   0.3440   0.3533
  0.3859   0.3910   0.4046   0.4205   0.4316   0.4582   0.4697   0.4907
  0.5033   0.5128   0.5247   0.5329   0.5443   0.5506   0.5756   0.5932
  0.5984   0.6039   0.6165   0.6288   0.6323   0.6423   0.6457   0.6477
  0.6537   0.6714   0.6890   0.7029   0.7149   0.7528   0.7839   0.7933
  0.8156   0.8388   0.8452   0.8572   0.8824   0.8904   0.8934   0.9418
  0.9493   0.9701   0.9896   1.0260   1.0435   1.0488   1.0675   1.0781
  1.0820   1.0938   1.1020   1.1137   1.1405   1.1634   1.1722   1.2067
  1.2383   1.2465   1.2567   1.2673   1.2777   1.2966   1.3034   1.3409
  1.3655   1.3903   1.4007   1.4113   1.4341   1.4414   1.4460   1.4834
  1.4993   1.5036   1.5285   1.5379   1.5430   1.5550   1.5612   1.5830
  1.5988   1.6326   1.6466   1.6754   1.6881   1.7017   1.7324   1.7468
  1.7824   1.7934   1.8016   1.8428   1.9007   1.9173   1.9428   1.9657
  2.0207   2.0585   2.0849   2.1351   2.1830   2.2013   2.2296   2.2621
  2.2956   2.3039   2.3415   2.4159   2.4464   2.4694   2.4885   2.5337
  2.5637   2.5865   2.6509   2.6665   2.6771   2.7064   2.7217   2.7228
  2.7413   2.7620   2.7796   2.7873   2.8206   2.8423   2.8547   2.8728
  2.9156   2.9316   2.9623   2.9752   3.0108   3.0229   3.0459   3.0694
  3.0981   3.1143   3.1203   3.1423   3.1542   3.1600   3.1786   3.1845
  3.2312   3.2360   3.2678   3.2775   3.2952   3.3075   3.3166   3.3269
  3.3327   3.3484   3.3780   3.3934   3.3953   3.4166   3.4293   3.4409
  3.4558   3.4575   3.4710   3.4879   3.5094   3.5146   3.5219   3.5544
  3.5871   3.5925   3.6093   3.6207   3.6318   3.6502   3.6583   3.6810
  3.6846   3.7049   3.7227   3.7307   3.7469   3.7724   3.7900   3.7986
  3.8112   3.8432   3.8760   3.8908   3.9065   3.9230   3.9400   3.9738
  3.9798   3.9922   4.0147   4.0278   4.0393   4.0647   4.0975   4.1041
  4.1247   4.1393   4.1709   4.2150   4.2244   4.2284   4.2494   4.2718
  4.2975   4.3043   4.3186   4.3253   4.3554   4.3785   4.3961   4.4028
  4.4245   4.4286   4.4418   4.4625   4.4810   4.5190   4.5380   4.5599
  4.5949   4.6069   4.6423   4.6885   4.7052   4.7419   4.7558   4.7775
  4.8136   4.8242   4.8769   4.8943   4.9159   4.9311   5.0979   5.1144
  5.1207   5.1375   5.1585   5.2041   5.2184   5.2652   5.2828   5.3343
  5.3766   5.4112   5.4169   5.4369   5.4666   5.5167   5.5505   5.5665
  5.5822   5.6080   5.6222   5.6579   5.6996   5.8066   5.8195   5.8829
  5.9271   5.9749   6.1216   6.2070   6.2278   6.2532   6.3270   6.4180
  6.4347   6.5840   9.2274  11.4088  12.9549  13.8275  14.1802  14.6703
 --------------------------------------------------------------
 
          Ground-State Mulliken Net Atomic Charges

     Atom                 Charge (a.u.)
  ----------------------------------------
      1 C                     0.068832
      2 C                    -0.313860
      3 C                     0.051454
      4 H                     0.176234
      5 C                    -0.281623
      6 S                    -0.001981
      7 C                    -0.274279
      8 H                     0.101289
      9 H                     0.107275
     10 H                     0.107490
     11 C                    -0.383654
     12 H                     0.146385
     13 H                     0.162761
     14 H                     0.141261
     15 H                     0.192416
  ----------------------------------------
  Sum of atomic charges =     0.000000

 -----------------------------------------------------------------
                    Cartesian Multipole Moments
 -----------------------------------------------------------------
    Charge (ESU x 10^10)
                -0.0000
    Dipole Moment (Debye)
         X       0.9033      Y      -0.7308      Z       1.4055
       Tot       1.8236
    Quadrupole Moments (Debye-Ang)
        XX     -54.1999     XY      -1.8738     YY     -41.9486
        XZ       0.0224     YZ       0.5007     ZZ     -48.6181
    Octopole Moments (Debye-Ang^2)
       XXX      -1.9822    XXY     -31.8196    XYY       3.1037
       YYY     -82.5838    XXZ      -1.9755    XYZ       0.0226
       YYZ      -4.8662    XZZ      -0.6752    YZZ     -26.3915
       ZZZ       0.7678
    Hexadecapole Moments (Debye-Ang^3)
      XXXX     -78.9285   XXXY      10.7154   XXYY    -162.8760
      XYYY       0.7533   YYYY    -809.2573   XXXZ       0.1008
      XXYZ     -29.9113   XYYZ      -0.2356   YYYZ     -99.3881
      XXZZ    -102.6045   XYZZ       2.8453   YYZZ    -209.5642
      XZZZ       0.0314   YZZZ    -101.3033   ZZZZ    -484.4738
 -----------------------------------------------------------------
 Total job time:  159.44s(wall), 157.42s(cpu) 
 Sun Jul 10 09:47:57 2022

        *************************************************************
        *                                                           *
        *  Thank you very much for using Q-Chem.  Have a nice day.  *
        *                                                           *
        *************************************************************


remove work dirs ./qchem2167080.0 -- ./qchem2167080.-1
rm -rf ./qchem2167080
