You are running Q-Chem version: 5.4.0

#
# job setting
#
local host:  exp-3-27
current dir: /expanse/lustre/scratch/theleonzhang/temp_project/Hydrogenated_Impropers_Test
input file:  Methylthiophene_Phi_20_Theta_240_Methylthiophene_Hydrogenated_Improper.qcin
output file: 
nprocs     : 0
nthreads   : 1
#
# qchem installation setting
#
QC:          /cm/shared/apps/spack/cpu/opt/spack/linux-centos8-zen2/gcc-10.2.0/qchem-5.4-akfmr7b3t57bfs6qan3padb2wnb2i7cl
QCAUX:       /cm/shared/apps/spack/cpu/opt/spack/linux-centos8-zen2/gcc-10.2.0/qchem-5.4-akfmr7b3t57bfs6qan3padb2wnb2i7cl/qcaux
QCPROG:      /cm/shared/apps/spack/cpu/opt/spack/linux-centos8-zen2/gcc-10.2.0/qchem-5.4-akfmr7b3t57bfs6qan3padb2wnb2i7cl/exe/qcprog.exe_s
QCPROG_S:    /cm/shared/apps/spack/cpu/opt/spack/linux-centos8-zen2/gcc-10.2.0/qchem-5.4-akfmr7b3t57bfs6qan3padb2wnb2i7cl/exe/qcprog.exe_s
PARALLEL:    -DSERIAL
QCMPI:       mpich
#
# qchem directory setting
#
qcrun:       qchem2553198
QCSCRATCH:   .
QCLOCALSCR:  
QCTMPDIR:    .
QCFILEPREF:  ./qchem2553198
QCSAVEDIR:   
workdirs:    ./qchem2553198
workdir0:    ./qchem2553198
partmpdirs =  
#
# parallel setting
#
QCRSH:           ssh
QCMPI:           mpich
QCMPIRUN:        /cm/shared/apps/spack/cpu/opt/spack/linux-centos8-zen2/gcc-10.2.0/qchem-5.4-akfmr7b3t57bfs6qan3padb2wnb2i7cl/bin/mpi/mpirun_qchem
QCMACHINEFILE:   ./qchem2553198/hostfile

#
# env setting
#
exported envs:   QC QCAUX QCSCRATCH QCRUNNAME QCFILEPREF QCPROG QCPROG_S GUIFILE

Running Job 1 of 1 Methylthiophene_Phi_20_Theta_240_Methylthiophene_Hydrogenated_Improper.qcin
qchem Methylthiophene_Phi_20_Theta_240_Methylthiophene_Hydrogenated_Improper.qcin_2553198.0 ./qchem2553198/ 0
/cm/shared/apps/spack/cpu/opt/spack/linux-centos8-zen2/gcc-10.2.0/qchem-5.4-akfmr7b3t57bfs6qan3padb2wnb2i7cl/exe/qcprog.exe_s Methylthiophene_Phi_20_Theta_240_Methylthiophene_Hydrogenated_Improper.qcin_2553198.0 ./qchem2553198/
                  Welcome to Q-Chem
     A Quantum Leap Into The Future Of Chemistry


 Q-Chem 5.4, Q-Chem, Inc., Pleasanton, CA (2021)

 License issued to: University of California, San Diego (site)

 E. Epifanovsky,  A. T. B. Gilbert,  Xintian Feng,  Joonho Lee,  Yuezhi Mao,  
 N. Mardirossian,  P. Pokhilko,  A. White,  M. Wormit,  M. P. Coons,  
 A. L. Dempwolff,  Zhengting Gan,  D. Hait,  P. R. Horn,  L. D. Jacobson,  
 I. Kaliman,  J. Kussmann,  A. W. Lange,  Ka Un Lao,  D. S. Levine,  Jie Liu,  
 S. C. McKenzie,  A. F. Morrison,  K. Nanda,  F. Plasser,  D. R. Rehn,  
 M. L. Vidal,  Zhi-Qiang You,  Ying Zhu,  B. Alam,  B. Albrecht,  
 A. Aldossary,  E. Alguire,  J. H. Andersen,  D. Barton,  K. Begam,  A. Behn,  
 Y. A. Bernard,  E. J. Berquist,  H. Burton,  A. Carreras,  K. Carter-Fenk,  
 R. Chakraborty,  A. D. Chien,  K. D. Closser,  V. Cofer-Shabica,  
 S. Dasgupta,  Jia Deng,  M. de Wergifosse,  M. Diedenhofen,  Hainam Do,  
 S. Ehlert,  Po-Tung Fang,  S. Fatehi,  Qingguo Feng,  J. Gayvert,  
 Qinghui Ge,  G. Gidofalvi,  M. Goldey,  J. Gomes,  C. Gonzalez-Espinoza,  
 S. Gulania,  A. Gunina,  M. W. D. Hanson-Heine,  P. H. P. Harbach,  
 A. W. Hauser,  M. F. Herbst,  M. Hernandez Vera,  M. Hodecker,  
 Z. C. Holden,  S. Houck,  Xunkun Huang,  Kerwin Hui,  B. C. Huynh,  
 M. Ivanov,  Hyunjun Ji,  Hanjie Jiang,  B. Kaduk,  S. Kaehler,  
 K. Khistyaev,  Jaehoon Kim,  P. Klunzinger,  Z. Koczor-Benda,  
 Joong Hoon Koh,  D. Kosenkov,  L. Koulias,  T. Kowalczyk,  C. M. Krauter,  
 K. Kue,  A. Kunitsa,  T. Kus,  A. Landau,  K. V. Lawler,  D. Lefrancois,  
 S. Lehtola,  Rain Li,  Yi-Pei Li,  Jiashu Liang,  M. Liebenthal,  
 Hung-Hsuan Lin,  You-Sheng Lin,  Fenglai Liu,  Kuan-Yu Liu,  
 M. Loipersberger,  A. Luenser,  A. Manjanath,  P. Manohar,  E. Mansoor,  
 S. F. Manzer,  Shan-Ping Mao,  A. V. Marenich,  T. Markovich,  S. Mason,  
 S. A. Maurer,  P. F. McLaughlin,  M. F. S. J. Menger,  J.-M. Mewes,  
 S. A. Mewes,  P. Morgante,  J. W. Mullinax,  T. S. Nguyen-Beck,  
 K. J. Oosterbaan,  G. Paran,  Alexander C. Paul,  Suranjan K. Paul,  
 F. Pavosevic,  Zheng Pei,  S. Prager,  E. I. Proynov,  E. Ramos,  B. Rana,  
 A. E. Rask,  A. Rettig,  R. M. Richard,  F. Rob,  E. Rossomme,  T. Scheele,  
 M. Scheurer,  M. Schneider,  N. Sergueev,  S. M. Sharada,  W. Skomorowski,  
 D. W. Small,  C. J. Stein,  Yu-Chuan Su,  E. J. Sundstrom,  Zhen Tao,  
 J. Thirman,  T. Tsuchimochi,  N. M. Tubman,  S. P. Veccham,  O. Vydrov,  
 J. Wenzel,  J. Witte,  A. Yamada,  Kun Yao,  S. Yeganeh,  S. R. Yost,  
 A. Zech,  Igor Ying Zhang,  Xing Zhang,  Yu Zhang,  D. Zuev,  
 A. Aspuru-Guzik,  A. T. Bell,  N. A. Besley,  K. B. Bravaya,  B. R. Brooks,  
 D. Casanova,  Jeng-Da Chai,  S. Coriani,  C. J. Cramer,  
 A. E. DePrince, III,  R. A. DiStasio Jr.,  A. Dreuw,  B. D. Dunietz,  
 T. R. Furlani,  W. A. Goddard III,  S. Grimme,  S. Hammes-Schiffer,  
 T. Head-Gordon,  W. J. Hehre,  Chao-Ping Hsu,  T.-C. Jagau,  Yousung Jung,  
 A. Klamt,  Jing Kong,  D. S. Lambrecht,  WanZhen Liang,  N. J. Mayhall,  
 C. W. McCurdy,  J. B. Neaton,  C. Ochsenfeld,  J. A. Parkhill,  R. Peverati,  
 V. A. Rassolov,  Yihan Shao,  L. V. Slipchenko,  T. Stauch,  R. P. Steele,  
 J. E. Subotnik,  A. J. W. Thom,  A. Tkatchenko,  D. G. Truhlar,  
 T. Van Voorhis,  T. A. Wesolowski,  K. B. Whaley,  H. L. Woodcock III,  
 P. M. Zimmerman,  S. Faraji,  P. M. W. Gill,  M. Head-Gordon,  
 J. M. Herbert,  A. I. Krylov

 Contributors to earlier versions of Q-Chem not listed above: 
 R. D. Adamson,  B. Austin,  R. Baer,  J. Baker,  G. J. O. Beran,  
 K. Brandhorst,  S. T. Brown,  E. F. C. Byrd,  A. K. Chakraborty,  
 G. K. L. Chan,  Chun-Min Chang,  Yunqing Chen,  C.-L. Cheng,  
 Siu Hung Chien,  D. M. Chipman,  D. L. Crittenden,  H. Dachsel,  
 R. J. Doerksen,  A. D. Dutoi,  R. G. Edgar,  J. Fosso-Tande,  
 L. Fusti-Molnar,  D. Ghosh,  A. Ghysels,  A. Golubeva-Zadorozhnaya,  
 J. Gonthier,  M. S. Gordon,  S. R. Gwaltney,  G. Hawkins,  J. E. Herr,  
 A. Heyden,  S. Hirata,  E. G. Hohenstein,  G. Kedziora,  F. J. Keil,  
 C. Kelley,  Jihan Kim,  R. A. King,  R. Z. Khaliullin,  P. P. Korambath,  
 W. Kurlancheek,  A. Laurent,  A. M. Lee,  M. S. Lee,  S. V. Levchenko,  
 Ching Yeh Lin,  D. Liotard,  E. Livshits,  R. C. Lochan,  I. Lotan,  
 L. A. Martinez-Martinez,  P. E. Maslen,  N. Nair,  D. P. O'Neill,  
 D. Neuhauser,  E. Neuscamman,  C. M. Oana,  R. Olivares-Amaya,  R. Olson,  
 T. M. Perrine,  B. Peters,  P. A. Pieniazek,  A. Prociuk,  Y. M. Rhee,  
 J. Ritchie,  M. A. Rohrdanz,  E. Rosta,  N. J. Russ,  H. F. Schaefer III,  
 M. W. Schmidt,  N. E. Schultz,  S. Sharma,  N. Shenvi,  C. D. Sherrill,  
 A. C. Simmonett,  A. Sodt,  T. Stein,  D. Stuck,  K. S. Thanthiriwatte,  
 V. Vanovschi,  L. Vogt,  Tao Wang,  A. Warshel,  M. A. Watson,  
 C. F. Williams,  Q. Wu,  X. Xu,  Jun Yang,  W. Zhang,  Yan Zhao

 Please cite Q-Chem as follows:
 Y. Shao et al., Mol. Phys. 113, 184-215 (2015)
 DOI: 10.1080/00268976.2014.952696

 Q-Chem 5.4.0 for Intel X86 EM64T Linux

 Parts of Q-Chem use Armadillo 9.800.1 (Horizon Scraper).
 http://arma.sourceforge.net/

 Q-Chem begins on Sun Jul 10 09:24:16 2022  

 Host: 
0

     Scratch files written to ./qchem2553198//
 May1621 |scratch|qcdevops|jenkins|workspace|build_RNUM    
 Processing $rem in /cm/shared/apps/spack/cpu/opt/spack/linux-centos8-zen2/gcc-10.2.0/qchem-5.4-akfmr7b3t57bfs6qan3padb2wnb2i7cl/config/preferences:
 Processing $rem in /home/theleonzhang/.qchemrc:
 Symmetry turned off for PCM/SM12/SMD calculation
 Core orbitals will be frozen

 Checking the input file for inconsistencies... 	...done.

--------------------------------------------------------------
User input:
--------------------------------------------------------------
$molecule
0 1
C	-0.230084	-0.535395	0.019522
C	0.065316	0.276105	1.118922
C	0.538616	1.576505	0.796222
H	-0.060784	-0.070395	2.155622
C	0.614116	1.783905	-0.592978
S	0.092216	0.350205	-1.467278
C	0.910716	2.598705	1.834122
H	0.765116	2.198705	2.856222
H	0.295916	3.518705	1.745722
H	1.973116	2.908305	1.745722
C	-0.230084	-1.976095	0.019522
H	-0.769984	-1.976295	-0.915878
H	-0.939584	-2.679895	0.429022
H	0.590116	-2.494995	-0.454078
H	0.938816	2.675905	-1.142078
$end

$rem
JOBTYPE		SP
EXCHANGE	HF
CORRELATION	pRIMP2
BASIS		cc-pvtz
METHOD		rimp2
AUX_BASIS	rimp2-cc-pvtz
SOLVENT_METHOD	PCM
PURECART	11111
SYMMETRY	false
MEM_TOTAL	110000
SCF_CONVERGENCE = 6
THRESH=10
$end



$solvent
dielectric 4.90
$end
--------------------------------------------------------------
 ----------------------------------------------------------------
             Standard Nuclear Orientation (Angstroms)
    I     Atom           X                Y                Z
 ----------------------------------------------------------------
    1      C      -0.2300840000    -0.5353950000     0.0195220000
    2      C       0.0653160000     0.2761050000     1.1189220000
    3      C       0.5386160000     1.5765050000     0.7962220000
    4      H      -0.0607840000    -0.0703950000     2.1556220000
    5      C       0.6141160000     1.7839050000    -0.5929780000
    6      S       0.0922160000     0.3502050000    -1.4672780000
    7      C       0.9107160000     2.5987050000     1.8341220000
    8      H       0.7651160000     2.1987050000     2.8562220000
    9      H       0.2959160000     3.5187050000     1.7457220000
   10      H       1.9731160000     2.9083050000     1.7457220000
   11      C      -0.2300840000    -1.9760950000     0.0195220000
   12      H      -0.7699840000    -1.9762950000    -0.9158780000
   13      H      -0.9395840000    -2.6798950000     0.4290220000
   14      H       0.5901160000    -2.4949950000    -0.4540780000
   15      H       0.9388160000     2.6759050000    -1.1420780000
 ----------------------------------------------------------------
 Nuclear Repulsion Energy =         345.24992136 hartrees
 There are       30 alpha and       30 beta electrons

 Q-Chem warning in module forms1/BasisType.C, line 2236:

 You are not using the predefined 5D/6D in this basis set.

 Requested basis set is cc-pVTZ
 There are 120 shells and 326 basis functions

 Total QAlloc Memory Limit 110000 MB
 Mega-Array Size       188 MB
 MEM_STATIC part       192 MB
 Discretize the solute cavity surface with Lebedev spheres
	Using 110 Lebedev grid points for each H atom
	Using 194 Lebedev grid points for other atoms
	Atomic van der Waals radii will be scaled by 1.20
 Remove points where switching function is < 1.0e-08
 Keep 1066 surface tesserae and discard 1172 interior tesserae
 Molecular Surface Area = 157.915 Angst**2

                       Distance Matrix (Angstroms)
             C (  1)   C (  2)   C (  3)   H (  4)   C (  5)   S (  6)
   C (  2)  1.398025
   C (  3)  2.377874  1.420981
   H (  4)  2.192672  1.100323  2.218001
   C (  5)  2.543026  2.346326  1.406624  3.383596
   S (  6)  1.760324  2.587401  2.612760  3.650441  1.758487
   C (  7)  3.796944  2.573069  1.503525  2.858543  2.577341  4.077369
   H (  8)  4.063569  2.684087  2.163801  2.514312  3.477332  4.749989
   H (  9)  4.437586  3.310666  2.175453  3.629999  2.929215  4.517107
   H ( 10)  4.437671  3.310749  2.175553  3.630072  2.929279  4.517193
   C ( 11)  1.440700  2.523558  3.716871  2.867626  3.901978  2.779590
   H ( 12)  1.800738  3.148244  4.155251  3.683685  4.019838  2.541660
   H ( 13)  2.295640  3.197456  4.520714  3.250066  4.835698  3.720493
   H ( 14)  2.176478  3.229356  4.259462  3.621172  4.281221  3.060987
   H ( 15)  3.609444  3.410889  2.264033  4.406381  1.096633  2.496271
             C (  7)   H (  8)   H (  9)   H ( 10)   C ( 11)   H ( 12)
   H (  8)  1.107198
   H (  9)  1.110042  1.787669
   H ( 10)  1.110117  1.787738  1.784822
   C ( 11)  5.052029  5.144535  5.783534  5.629496
   H ( 12)  5.596238  5.832315  6.198006  6.202260  1.080030
   H ( 13)  5.767281  5.709469  6.456222  6.437818  1.080007  1.527276
   H ( 14)  5.593248  5.746262  6.410169  5.995620  1.079945  1.527148
   H ( 15)  2.977334  4.030421  3.076202  3.076227  4.935255  4.961263
             H ( 13)   H ( 14)
   H ( 14)  1.775961
   H ( 15)  5.889086  5.228111
 
 Requested basis set is rimp2-cc-pVTZ
 There are 250 shells and 848 basis functions
 A cutoff of  1.0D-10 yielded   6168 shell pairs
 There are     45176 function pairs (     58097 Cartesian)
 Smallest overlap matrix eigenvalue = 1.08E-04

 Scale SEOQF with 1.000000e-01/1.000000e-01/1.000000e-01

 Standard Electronic Orientation quadrupole field applied
 Nucleus-field energy     =     0.0000000019 hartrees
 Guess from superposition of atomic densities
 Warning:  Energy on first SCF cycle will be non-variational
 SAD guess density has 60.000000 electrons

 -----------------------------------------------------------------------
  General SCF calculation program by
  Eric Jon Sundstrom, Paul Horn, Yuezhi Mao, Dmitri Zuev, Alec White,
  David Stuck, Shaama M.S., Shane Yost, Joonho Lee, David Small,
  Daniel Levine, Susi Lehtola, Hugh Burton, Evgeny Epifanovsky,
  Bang C. Huynh
 -----------------------------------------------------------------------
 Hartree-Fock
 A restricted SCF calculation will be
 performed using DIIS
 SCF converges when DIIS error is below 1.0e-06
 ---------------------------------------
  Cycle       Energy         DIIS error
 ---------------------------------------
    1    -632.1114211338      2.92e-02  
    2    -629.3328032572      1.94e-03  
    3    -629.4033480545      6.86e-04  
    4    -629.4109654230      3.42e-04  
    5    -629.4130762938      6.46e-05  
    6    -629.4132145441      2.64e-05  
    7    -629.4132498617      1.19e-05  
    8    -629.4132596772      5.04e-06  
    9    -629.4132611842      1.82e-06  
   10    -629.4132613748      5.32e-07  Convergence criterion met
 ---------------------------------------
 SCF time:   CPU 144.33s  wall 145.00s 

************** Final PCM Free Energy Summary **************
 G_electrostatic  =      -0.00506897 hartree =      -3.18082684 kcal/mol
 G_cavitation     =       0.00000000 hartree =       0.00000000 kcal/mol
 G_dispersion     =       0.00000000 hartree =       0.00000000 kcal/mol
 G_repulsion      =       0.00000000 hartree =       0.00000000 kcal/mol
 --------------------------------------------------
 Non-electrostatic Free Energy =       0.00000000 hartree =       0.00000000 kcal/mol
 Total                         =      -0.00506897 hartree =      -3.18082684 kcal/mol
 --------------------------------------------------
 SCF Energy (H0 + V/2)                       =    -629.41326137 
 Solute Internal Energy (H0)                 =    -629.40819240 
 Total Free Energy (H0 + V/2 + non-elec)     =    -629.41326137 hartree
                                             = -394962.78268567 kcal/mol
***********************************************************

 SCF   energy in the final basis set =     -629.4132613748
 Total energy in the final basis set =     -629.4132613748


 --------------------------------------------------------------
  Generalized many-body perturbation theory program
  by Joonho Lee, Fazle Rob, Xintian Feng, Evgeny Epifanovsky

 No regularization used 
 (reg. param. = 0.0000e+00)
  (P|Q)^-1/2 Time:  CPU 0.48 s  wall 0.49 s

 In RI-MP2 calculation: 
 # of frozen core orbitals: 11

 Components of the RIMP2 correlation energy:
        aaaa    correlation energy =        -0.1457148550 a.u.
        abab    correlation energy =        -0.8875748611 a.u.
        bbbb    correlation energy =        -0.1457148550 a.u.
        non-Brillouin singles      =        -0.0000000000 a.u.
        total same-spin energy     =        -0.2914297101 a.u.
        total opposite-spin energy =        -0.8875748611 a.u.

 Total  RIMP2   correlation energy =        -1.1790045712 a.u.
        RIMP2         total energy =      -630.5922659459 a.u.

 RI-MP2 Energy Time:  CPU 11.12 s  wall 11.15 s
 
 --------------------------------------------------------------
 
                    Orbital Energies (a.u.)
 --------------------------------------------------------------
 
 Alpha MOs
 -- Occupied --
-91.9801 -11.2736 -11.2588 -11.2471 -11.2295 -11.2268 -11.2157  -8.9800
 -6.6609  -6.6604  -6.6598  -1.1616  -1.0550  -0.9953  -0.9457  -0.8816
 -0.7476  -0.7192  -0.6472  -0.5912  -0.5749  -0.5665  -0.5533  -0.5469
 -0.5101  -0.4836  -0.4643  -0.4473  -0.3384  -0.2997
 -- Virtual --
  0.0988   0.1421   0.1502   0.1755   0.1877   0.1922   0.1990   0.2278
  0.2341   0.2444   0.2476   0.2708   0.2910   0.3196   0.3382   0.3494
  0.3765   0.3965   0.3989   0.4177   0.4371   0.4668   0.4736   0.4773
  0.4931   0.4967   0.5188   0.5310   0.5427   0.5536   0.5843   0.5932
  0.6022   0.6089   0.6130   0.6157   0.6291   0.6373   0.6456   0.6481
  0.6547   0.6655   0.6892   0.7104   0.7378   0.7499   0.7507   0.7777
  0.8006   0.8342   0.8419   0.8590   0.8676   0.8833   0.9057   0.9175
  0.9410   0.9601   0.9964   1.0073   1.0278   1.0521   1.0661   1.0779
  1.0888   1.0923   1.1037   1.1478   1.1643   1.1763   1.2041   1.2195
  1.2328   1.2360   1.2537   1.2638   1.2734   1.2895   1.3094   1.3309
  1.3366   1.3645   1.3925   1.4070   1.4237   1.4331   1.4609   1.4791
  1.4960   1.5169   1.5267   1.5301   1.5521   1.5636   1.5781   1.5821
  1.6181   1.6261   1.6529   1.6648   1.6834   1.6903   1.7087   1.7405
  1.7598   1.7819   1.8183   1.8286   1.8784   1.9104   1.9293   1.9672
  1.9954   2.0407   2.0907   2.1221   2.1675   2.1892   2.2175   2.2270
  2.2593   2.2782   2.3439   2.4182   2.4556   2.4930   2.5441   2.5580
  2.5639   2.6054   2.6396   2.6672   2.6818   2.6919   2.7171   2.7435
  2.7509   2.7700   2.7729   2.7899   2.8269   2.8320   2.8486   2.8654
  2.9099   2.9315   2.9631   2.9792   2.9985   3.0081   3.0477   3.0510
  3.1040   3.1137   3.1215   3.1335   3.1387   3.1675   3.1689   3.2013
  3.2116   3.2390   3.2625   3.2721   3.2840   3.2962   3.3140   3.3321
  3.3467   3.3549   3.3743   3.3901   3.4078   3.4162   3.4271   3.4362
  3.4551   3.4584   3.4879   3.4982   3.5188   3.5277   3.5454   3.5604
  3.5798   3.5933   3.6155   3.6209   3.6251   3.6399   3.6658   3.6914
  3.7013   3.7072   3.7167   3.7527   3.7597   3.7744   3.7926   3.8055
  3.8064   3.8264   3.8697   3.8854   3.9007   3.9201   3.9366   3.9463
  3.9696   3.9826   4.0212   4.0283   4.0506   4.0577   4.0855   4.1048
  4.1212   4.1455   4.1726   4.1847   4.1884   4.2206   4.2416   4.2537
  4.2810   4.2902   4.3179   4.3398   4.3408   4.3690   4.3829   4.3991
  4.4027   4.4267   4.4386   4.4546   4.4821   4.5043   4.5191   4.5603
  4.5913   4.6142   4.6528   4.6754   4.7141   4.7301   4.7600   4.7788
  4.8055   4.8199   4.8331   4.8934   4.9361   4.9681   5.0816   5.0888
  5.1075   5.1478   5.1893   5.1958   5.2495   5.2733   5.2870   5.3185
  5.3644   5.4039   5.4142   5.4412   5.4606   5.5019   5.5460   5.5633
  5.5958   5.6136   5.6245   5.6919   5.7375   5.8237   5.8300   5.8699
  5.8888   6.0312   6.0497   6.1193   6.2277   6.2476   6.2990   6.3628
  6.4122   6.4805   9.1270  11.4714  12.9079  13.9144  14.1953  14.3579
 --------------------------------------------------------------
 
          Ground-State Mulliken Net Atomic Charges

     Atom                 Charge (a.u.)
  ----------------------------------------
      1 C                     0.020578
      2 C                    -0.253069
      3 C                     0.035456
      4 H                     0.179685
      5 C                    -0.251075
      6 S                    -0.001498
      7 C                    -0.272569
      8 H                     0.101783
      9 H                     0.106891
     10 H                     0.106586
     11 C                    -0.365964
     12 H                     0.113919
     13 H                     0.155199
     14 H                     0.129349
     15 H                     0.194729
  ----------------------------------------
  Sum of atomic charges =     0.000000

 -----------------------------------------------------------------
                    Cartesian Multipole Moments
 -----------------------------------------------------------------
    Charge (ESU x 10^10)
                -0.0000
    Dipole Moment (Debye)
         X       0.2378      Y      -0.0235      Z       0.9486
       Tot       0.9782
    Quadrupole Moments (Debye-Ang)
        XX     -52.7741     XY       3.6986     YY     -43.2317
        XZ      -0.1382     YZ       1.1572     ZZ     -48.7247
    Octopole Moments (Debye-Ang^2)
       XXX     -36.6002    XXY     -27.9955    XYY      -8.0702
       YYY     -75.0987    XXZ      -1.9170    XYZ      -0.1926
       YYZ      -6.3106    XZZ     -10.1933    YZZ     -21.9231
       ZZZ       2.3587
    Hexadecapole Moments (Debye-Ang^3)
      XXXX    -147.1626   XXXY    -104.1111   XXYY    -150.7515
      XYYY     -84.0634   YYYY    -750.9857   XXXZ     -32.2440
      XXYZ     -31.4385   XYYZ     -17.6029   YYYZ     -97.4101
      XXZZ    -110.4971   XYZZ     -29.1535   YYZZ    -206.3352
      XZZZ     -34.9872   YZZZ     -98.7388   ZZZZ    -482.1941
 -----------------------------------------------------------------
 Total job time:  157.61s(wall), 155.85s(cpu) 
 Sun Jul 10 09:26:54 2022

        *************************************************************
        *                                                           *
        *  Thank you very much for using Q-Chem.  Have a nice day.  *
        *                                                           *
        *************************************************************


remove work dirs ./qchem2553198.0 -- ./qchem2553198.-1
rm -rf ./qchem2553198
You are running Q-Chem version: 5.4.0

#
# job setting
#
local host:  exp-3-46
current dir: /expanse/lustre/scratch/theleonzhang/temp_project/Hydrogenated_Impropers_Test
input file:  Methylthiophene_Phi_20_Theta_240_Methylthiophene_Hydrogenated_Improper.qcin
output file: 
nprocs     : 0
nthreads   : 1
#
# qchem installation setting
#
QC:          /cm/shared/apps/spack/cpu/opt/spack/linux-centos8-zen2/gcc-10.2.0/qchem-5.4-akfmr7b3t57bfs6qan3padb2wnb2i7cl
QCAUX:       /cm/shared/apps/spack/cpu/opt/spack/linux-centos8-zen2/gcc-10.2.0/qchem-5.4-akfmr7b3t57bfs6qan3padb2wnb2i7cl/qcaux
QCPROG:      /cm/shared/apps/spack/cpu/opt/spack/linux-centos8-zen2/gcc-10.2.0/qchem-5.4-akfmr7b3t57bfs6qan3padb2wnb2i7cl/exe/qcprog.exe_s
QCPROG_S:    /cm/shared/apps/spack/cpu/opt/spack/linux-centos8-zen2/gcc-10.2.0/qchem-5.4-akfmr7b3t57bfs6qan3padb2wnb2i7cl/exe/qcprog.exe_s
PARALLEL:    -DSERIAL
QCMPI:       mpich
#
# qchem directory setting
#
qcrun:       qchem2932673
QCSCRATCH:   .
QCLOCALSCR:  
QCTMPDIR:    .
QCFILEPREF:  ./qchem2932673
QCSAVEDIR:   
workdirs:    ./qchem2932673
workdir0:    ./qchem2932673
partmpdirs =  
#
# parallel setting
#
QCRSH:           ssh
QCMPI:           mpich
QCMPIRUN:        /cm/shared/apps/spack/cpu/opt/spack/linux-centos8-zen2/gcc-10.2.0/qchem-5.4-akfmr7b3t57bfs6qan3padb2wnb2i7cl/bin/mpi/mpirun_qchem
QCMACHINEFILE:   ./qchem2932673/hostfile

#
# env setting
#
exported envs:   QC QCAUX QCSCRATCH QCRUNNAME QCFILEPREF QCPROG QCPROG_S GUIFILE

Running Job 1 of 1 Methylthiophene_Phi_20_Theta_240_Methylthiophene_Hydrogenated_Improper.qcin
qchem Methylthiophene_Phi_20_Theta_240_Methylthiophene_Hydrogenated_Improper.qcin_2932673.0 ./qchem2932673/ 0
/cm/shared/apps/spack/cpu/opt/spack/linux-centos8-zen2/gcc-10.2.0/qchem-5.4-akfmr7b3t57bfs6qan3padb2wnb2i7cl/exe/qcprog.exe_s Methylthiophene_Phi_20_Theta_240_Methylthiophene_Hydrogenated_Improper.qcin_2932673.0 ./qchem2932673/
                  Welcome to Q-Chem
     A Quantum Leap Into The Future Of Chemistry


 Q-Chem 5.4, Q-Chem, Inc., Pleasanton, CA (2021)

 License issued to: University of California, San Diego (site)

 E. Epifanovsky,  A. T. B. Gilbert,  Xintian Feng,  Joonho Lee,  Yuezhi Mao,  
 N. Mardirossian,  P. Pokhilko,  A. White,  M. Wormit,  M. P. Coons,  
 A. L. Dempwolff,  Zhengting Gan,  D. Hait,  P. R. Horn,  L. D. Jacobson,  
 I. Kaliman,  J. Kussmann,  A. W. Lange,  Ka Un Lao,  D. S. Levine,  Jie Liu,  
 S. C. McKenzie,  A. F. Morrison,  K. Nanda,  F. Plasser,  D. R. Rehn,  
 M. L. Vidal,  Zhi-Qiang You,  Ying Zhu,  B. Alam,  B. Albrecht,  
 A. Aldossary,  E. Alguire,  J. H. Andersen,  D. Barton,  K. Begam,  A. Behn,  
 Y. A. Bernard,  E. J. Berquist,  H. Burton,  A. Carreras,  K. Carter-Fenk,  
 R. Chakraborty,  A. D. Chien,  K. D. Closser,  V. Cofer-Shabica,  
 S. Dasgupta,  Jia Deng,  M. de Wergifosse,  M. Diedenhofen,  Hainam Do,  
 S. Ehlert,  Po-Tung Fang,  S. Fatehi,  Qingguo Feng,  J. Gayvert,  
 Qinghui Ge,  G. Gidofalvi,  M. Goldey,  J. Gomes,  C. Gonzalez-Espinoza,  
 S. Gulania,  A. Gunina,  M. W. D. Hanson-Heine,  P. H. P. Harbach,  
 A. W. Hauser,  M. F. Herbst,  M. Hernandez Vera,  M. Hodecker,  
 Z. C. Holden,  S. Houck,  Xunkun Huang,  Kerwin Hui,  B. C. Huynh,  
 M. Ivanov,  Hyunjun Ji,  Hanjie Jiang,  B. Kaduk,  S. Kaehler,  
 K. Khistyaev,  Jaehoon Kim,  P. Klunzinger,  Z. Koczor-Benda,  
 Joong Hoon Koh,  D. Kosenkov,  L. Koulias,  T. Kowalczyk,  C. M. Krauter,  
 K. Kue,  A. Kunitsa,  T. Kus,  A. Landau,  K. V. Lawler,  D. Lefrancois,  
 S. Lehtola,  Rain Li,  Yi-Pei Li,  Jiashu Liang,  M. Liebenthal,  
 Hung-Hsuan Lin,  You-Sheng Lin,  Fenglai Liu,  Kuan-Yu Liu,  
 M. Loipersberger,  A. Luenser,  A. Manjanath,  P. Manohar,  E. Mansoor,  
 S. F. Manzer,  Shan-Ping Mao,  A. V. Marenich,  T. Markovich,  S. Mason,  
 S. A. Maurer,  P. F. McLaughlin,  M. F. S. J. Menger,  J.-M. Mewes,  
 S. A. Mewes,  P. Morgante,  J. W. Mullinax,  T. S. Nguyen-Beck,  
 K. J. Oosterbaan,  G. Paran,  Alexander C. Paul,  Suranjan K. Paul,  
 F. Pavosevic,  Zheng Pei,  S. Prager,  E. I. Proynov,  E. Ramos,  B. Rana,  
 A. E. Rask,  A. Rettig,  R. M. Richard,  F. Rob,  E. Rossomme,  T. Scheele,  
 M. Scheurer,  M. Schneider,  N. Sergueev,  S. M. Sharada,  W. Skomorowski,  
 D. W. Small,  C. J. Stein,  Yu-Chuan Su,  E. J. Sundstrom,  Zhen Tao,  
 J. Thirman,  T. Tsuchimochi,  N. M. Tubman,  S. P. Veccham,  O. Vydrov,  
 J. Wenzel,  J. Witte,  A. Yamada,  Kun Yao,  S. Yeganeh,  S. R. Yost,  
 A. Zech,  Igor Ying Zhang,  Xing Zhang,  Yu Zhang,  D. Zuev,  
 A. Aspuru-Guzik,  A. T. Bell,  N. A. Besley,  K. B. Bravaya,  B. R. Brooks,  
 D. Casanova,  Jeng-Da Chai,  S. Coriani,  C. J. Cramer,  
 A. E. DePrince, III,  R. A. DiStasio Jr.,  A. Dreuw,  B. D. Dunietz,  
 T. R. Furlani,  W. A. Goddard III,  S. Grimme,  S. Hammes-Schiffer,  
 T. Head-Gordon,  W. J. Hehre,  Chao-Ping Hsu,  T.-C. Jagau,  Yousung Jung,  
 A. Klamt,  Jing Kong,  D. S. Lambrecht,  WanZhen Liang,  N. J. Mayhall,  
 C. W. McCurdy,  J. B. Neaton,  C. Ochsenfeld,  J. A. Parkhill,  R. Peverati,  
 V. A. Rassolov,  Yihan Shao,  L. V. Slipchenko,  T. Stauch,  R. P. Steele,  
 J. E. Subotnik,  A. J. W. Thom,  A. Tkatchenko,  D. G. Truhlar,  
 T. Van Voorhis,  T. A. Wesolowski,  K. B. Whaley,  H. L. Woodcock III,  
 P. M. Zimmerman,  S. Faraji,  P. M. W. Gill,  M. Head-Gordon,  
 J. M. Herbert,  A. I. Krylov

 Contributors to earlier versions of Q-Chem not listed above: 
 R. D. Adamson,  B. Austin,  R. Baer,  J. Baker,  G. J. O. Beran,  
 K. Brandhorst,  S. T. Brown,  E. F. C. Byrd,  A. K. Chakraborty,  
 G. K. L. Chan,  Chun-Min Chang,  Yunqing Chen,  C.-L. Cheng,  
 Siu Hung Chien,  D. M. Chipman,  D. L. Crittenden,  H. Dachsel,  
 R. J. Doerksen,  A. D. Dutoi,  R. G. Edgar,  J. Fosso-Tande,  
 L. Fusti-Molnar,  D. Ghosh,  A. Ghysels,  A. Golubeva-Zadorozhnaya,  
 J. Gonthier,  M. S. Gordon,  S. R. Gwaltney,  G. Hawkins,  J. E. Herr,  
 A. Heyden,  S. Hirata,  E. G. Hohenstein,  G. Kedziora,  F. J. Keil,  
 C. Kelley,  Jihan Kim,  R. A. King,  R. Z. Khaliullin,  P. P. Korambath,  
 W. Kurlancheek,  A. Laurent,  A. M. Lee,  M. S. Lee,  S. V. Levchenko,  
 Ching Yeh Lin,  D. Liotard,  E. Livshits,  R. C. Lochan,  I. Lotan,  
 L. A. Martinez-Martinez,  P. E. Maslen,  N. Nair,  D. P. O'Neill,  
 D. Neuhauser,  E. Neuscamman,  C. M. Oana,  R. Olivares-Amaya,  R. Olson,  
 T. M. Perrine,  B. Peters,  P. A. Pieniazek,  A. Prociuk,  Y. M. Rhee,  
 J. Ritchie,  M. A. Rohrdanz,  E. Rosta,  N. J. Russ,  H. F. Schaefer III,  
 M. W. Schmidt,  N. E. Schultz,  S. Sharma,  N. Shenvi,  C. D. Sherrill,  
 A. C. Simmonett,  A. Sodt,  T. Stein,  D. Stuck,  K. S. Thanthiriwatte,  
 V. Vanovschi,  L. Vogt,  Tao Wang,  A. Warshel,  M. A. Watson,  
 C. F. Williams,  Q. Wu,  X. Xu,  Jun Yang,  W. Zhang,  Yan Zhao

 Please cite Q-Chem as follows:
 Y. Shao et al., Mol. Phys. 113, 184-215 (2015)
 DOI: 10.1080/00268976.2014.952696

 Q-Chem 5.4.0 for Intel X86 EM64T Linux

 Parts of Q-Chem use Armadillo 9.800.1 (Horizon Scraper).
 http://arma.sourceforge.net/

 Q-Chem begins on Sun Jul 10 10:01:23 2022  

 Host: 
0

     Scratch files written to ./qchem2932673//
 May1621 |scratch|qcdevops|jenkins|workspace|build_RNUM    
 Processing $rem in /cm/shared/apps/spack/cpu/opt/spack/linux-centos8-zen2/gcc-10.2.0/qchem-5.4-akfmr7b3t57bfs6qan3padb2wnb2i7cl/config/preferences:
 Processing $rem in /home/theleonzhang/.qchemrc:
 Symmetry turned off for PCM/SM12/SMD calculation
 Core orbitals will be frozen

 Checking the input file for inconsistencies... 	...done.

--------------------------------------------------------------
User input:
--------------------------------------------------------------
$molecule
0 1
C	-0.230084	-0.535395	0.019522
C	0.065316	0.276105	1.118922
C	0.538616	1.576505	0.796222
H	-0.060784	-0.070395	2.155622
C	0.614116	1.783905	-0.592978
S	0.092216	0.350205	-1.467278
C	0.910716	2.598705	1.834122
H	0.765116	2.198705	2.856222
H	0.295916	3.518705	1.745722
H	1.973116	2.908305	1.745722
C	-0.230084	-1.976095	0.019522
H	-0.769984	-1.976295	-0.915878
H	-0.939584	-2.679895	0.429022
H	0.590116	-2.494995	-0.454078
H	0.938816	2.675905	-1.142078
$end

$rem
JOBTYPE		SP
EXCHANGE	HF
CORRELATION	pRIMP2
BASIS		cc-pvtz
METHOD		rimp2
AUX_BASIS	rimp2-cc-pvtz
SOLVENT_METHOD	PCM
PURECART	11111
SYMMETRY	false
MEM_TOTAL	110000
SCF_CONVERGENCE = 6
THRESH=10
$end



$solvent
dielectric 4.90
$end
--------------------------------------------------------------
 ----------------------------------------------------------------
             Standard Nuclear Orientation (Angstroms)
    I     Atom           X                Y                Z
 ----------------------------------------------------------------
    1      C      -0.2300840000    -0.5353950000     0.0195220000
    2      C       0.0653160000     0.2761050000     1.1189220000
    3      C       0.5386160000     1.5765050000     0.7962220000
    4      H      -0.0607840000    -0.0703950000     2.1556220000
    5      C       0.6141160000     1.7839050000    -0.5929780000
    6      S       0.0922160000     0.3502050000    -1.4672780000
    7      C       0.9107160000     2.5987050000     1.8341220000
    8      H       0.7651160000     2.1987050000     2.8562220000
    9      H       0.2959160000     3.5187050000     1.7457220000
   10      H       1.9731160000     2.9083050000     1.7457220000
   11      C      -0.2300840000    -1.9760950000     0.0195220000
   12      H      -0.7699840000    -1.9762950000    -0.9158780000
   13      H      -0.9395840000    -2.6798950000     0.4290220000
   14      H       0.5901160000    -2.4949950000    -0.4540780000
   15      H       0.9388160000     2.6759050000    -1.1420780000
 ----------------------------------------------------------------
 Nuclear Repulsion Energy =         345.24992136 hartrees
 There are       30 alpha and       30 beta electrons

 Q-Chem warning in module forms1/BasisType.C, line 2236:

 You are not using the predefined 5D/6D in this basis set.

 Requested basis set is cc-pVTZ
 There are 120 shells and 326 basis functions

 Total QAlloc Memory Limit 110000 MB
 Mega-Array Size       188 MB
 MEM_STATIC part       192 MB
 Discretize the solute cavity surface with Lebedev spheres
	Using 110 Lebedev grid points for each H atom
	Using 194 Lebedev grid points for other atoms
	Atomic van der Waals radii will be scaled by 1.20
 Remove points where switching function is < 1.0e-08
 Keep 1066 surface tesserae and discard 1172 interior tesserae
 Molecular Surface Area = 157.915 Angst**2

                       Distance Matrix (Angstroms)
             C (  1)   C (  2)   C (  3)   H (  4)   C (  5)   S (  6)
   C (  2)  1.398025
   C (  3)  2.377874  1.420981
   H (  4)  2.192672  1.100323  2.218001
   C (  5)  2.543026  2.346326  1.406624  3.383596
   S (  6)  1.760324  2.587401  2.612760  3.650441  1.758487
   C (  7)  3.796944  2.573069  1.503525  2.858543  2.577341  4.077369
   H (  8)  4.063569  2.684087  2.163801  2.514312  3.477332  4.749989
   H (  9)  4.437586  3.310666  2.175453  3.629999  2.929215  4.517107
   H ( 10)  4.437671  3.310749  2.175553  3.630072  2.929279  4.517193
   C ( 11)  1.440700  2.523558  3.716871  2.867626  3.901978  2.779590
   H ( 12)  1.800738  3.148244  4.155251  3.683685  4.019838  2.541660
   H ( 13)  2.295640  3.197456  4.520714  3.250066  4.835698  3.720493
   H ( 14)  2.176478  3.229356  4.259462  3.621172  4.281221  3.060987
   H ( 15)  3.609444  3.410889  2.264033  4.406381  1.096633  2.496271
             C (  7)   H (  8)   H (  9)   H ( 10)   C ( 11)   H ( 12)
   H (  8)  1.107198
   H (  9)  1.110042  1.787669
   H ( 10)  1.110117  1.787738  1.784822
   C ( 11)  5.052029  5.144535  5.783534  5.629496
   H ( 12)  5.596238  5.832315  6.198006  6.202260  1.080030
   H ( 13)  5.767281  5.709469  6.456222  6.437818  1.080007  1.527276
   H ( 14)  5.593248  5.746262  6.410169  5.995620  1.079945  1.527148
   H ( 15)  2.977334  4.030421  3.076202  3.076227  4.935255  4.961263
             H ( 13)   H ( 14)
   H ( 14)  1.775961
   H ( 15)  5.889086  5.228111
 
 Requested basis set is rimp2-cc-pVTZ
 There are 250 shells and 848 basis functions
 A cutoff of  1.0D-10 yielded   6168 shell pairs
 There are     45176 function pairs (     58097 Cartesian)
 Smallest overlap matrix eigenvalue = 1.08E-04

 Scale SEOQF with 1.000000e-01/1.000000e-01/1.000000e-01

 Standard Electronic Orientation quadrupole field applied
 Nucleus-field energy     =     0.0000000019 hartrees
 Guess from superposition of atomic densities
 Warning:  Energy on first SCF cycle will be non-variational
 SAD guess density has 60.000000 electrons

 -----------------------------------------------------------------------
  General SCF calculation program by
  Eric Jon Sundstrom, Paul Horn, Yuezhi Mao, Dmitri Zuev, Alec White,
  David Stuck, Shaama M.S., Shane Yost, Joonho Lee, David Small,
  Daniel Levine, Susi Lehtola, Hugh Burton, Evgeny Epifanovsky,
  Bang C. Huynh
 -----------------------------------------------------------------------
 Hartree-Fock
 A restricted SCF calculation will be
 performed using DIIS
 SCF converges when DIIS error is below 1.0e-06
 ---------------------------------------
  Cycle       Energy         DIIS error
 ---------------------------------------
    1    -632.1114211338      2.92e-02  
    2    -629.3328032572      1.94e-03  
    3    -629.4033480545      6.86e-04  
    4    -629.4109654230      3.42e-04  
    5    -629.4130762938      6.46e-05  
    6    -629.4132145441      2.64e-05  
    7    -629.4132498617      1.19e-05  
    8    -629.4132596772      5.04e-06  
    9    -629.4132611842      1.82e-06  
   10    -629.4132613748      5.32e-07  Convergence criterion met
 ---------------------------------------
 SCF time:   CPU 144.71s  wall 145.00s 

************** Final PCM Free Energy Summary **************
 G_electrostatic  =      -0.00506897 hartree =      -3.18082684 kcal/mol
 G_cavitation     =       0.00000000 hartree =       0.00000000 kcal/mol
 G_dispersion     =       0.00000000 hartree =       0.00000000 kcal/mol
 G_repulsion      =       0.00000000 hartree =       0.00000000 kcal/mol
 --------------------------------------------------
 Non-electrostatic Free Energy =       0.00000000 hartree =       0.00000000 kcal/mol
 Total                         =      -0.00506897 hartree =      -3.18082684 kcal/mol
 --------------------------------------------------
 SCF Energy (H0 + V/2)                       =    -629.41326137 
 Solute Internal Energy (H0)                 =    -629.40819240 
 Total Free Energy (H0 + V/2 + non-elec)     =    -629.41326137 hartree
                                             = -394962.78268567 kcal/mol
***********************************************************

 SCF   energy in the final basis set =     -629.4132613748
 Total energy in the final basis set =     -629.4132613748


 --------------------------------------------------------------
  Generalized many-body perturbation theory program
  by Joonho Lee, Fazle Rob, Xintian Feng, Evgeny Epifanovsky

 No regularization used 
 (reg. param. = 0.0000e+00)
  (P|Q)^-1/2 Time:  CPU 0.49 s  wall 0.49 s

 In RI-MP2 calculation: 
 # of frozen core orbitals: 11

 Components of the RIMP2 correlation energy:
        aaaa    correlation energy =        -0.1457148550 a.u.
        abab    correlation energy =        -0.8875748611 a.u.
        bbbb    correlation energy =        -0.1457148550 a.u.
        non-Brillouin singles      =        -0.0000000000 a.u.
        total same-spin energy     =        -0.2914297101 a.u.
        total opposite-spin energy =        -0.8875748611 a.u.

 Total  RIMP2   correlation energy =        -1.1790045712 a.u.
        RIMP2         total energy =      -630.5922659459 a.u.

 RI-MP2 Energy Time:  CPU 11.29 s  wall 11.33 s
 
 --------------------------------------------------------------
 
                    Orbital Energies (a.u.)
 --------------------------------------------------------------
 
 Alpha MOs
 -- Occupied --
-91.9801 -11.2736 -11.2588 -11.2471 -11.2295 -11.2268 -11.2157  -8.9800
 -6.6609  -6.6604  -6.6598  -1.1616  -1.0550  -0.9953  -0.9457  -0.8816
 -0.7476  -0.7192  -0.6472  -0.5912  -0.5749  -0.5665  -0.5533  -0.5469
 -0.5101  -0.4836  -0.4643  -0.4473  -0.3384  -0.2997
 -- Virtual --
  0.0988   0.1421   0.1502   0.1755   0.1877   0.1922   0.1990   0.2278
  0.2341   0.2444   0.2476   0.2708   0.2910   0.3196   0.3382   0.3494
  0.3765   0.3965   0.3989   0.4177   0.4371   0.4668   0.4736   0.4773
  0.4931   0.4967   0.5188   0.5310   0.5427   0.5536   0.5843   0.5932
  0.6022   0.6089   0.6130   0.6157   0.6291   0.6373   0.6456   0.6481
  0.6547   0.6655   0.6892   0.7104   0.7378   0.7499   0.7507   0.7777
  0.8006   0.8342   0.8419   0.8590   0.8676   0.8833   0.9057   0.9175
  0.9410   0.9601   0.9964   1.0073   1.0278   1.0521   1.0661   1.0779
  1.0888   1.0923   1.1037   1.1478   1.1643   1.1763   1.2041   1.2195
  1.2328   1.2360   1.2537   1.2638   1.2734   1.2895   1.3094   1.3309
  1.3366   1.3645   1.3925   1.4070   1.4237   1.4331   1.4609   1.4791
  1.4960   1.5169   1.5267   1.5301   1.5521   1.5636   1.5781   1.5821
  1.6181   1.6261   1.6529   1.6648   1.6834   1.6903   1.7087   1.7405
  1.7598   1.7819   1.8183   1.8286   1.8784   1.9104   1.9293   1.9672
  1.9954   2.0407   2.0907   2.1221   2.1675   2.1892   2.2175   2.2270
  2.2593   2.2782   2.3439   2.4182   2.4556   2.4930   2.5441   2.5580
  2.5639   2.6054   2.6396   2.6672   2.6818   2.6919   2.7171   2.7435
  2.7509   2.7700   2.7729   2.7899   2.8269   2.8320   2.8486   2.8654
  2.9099   2.9315   2.9631   2.9792   2.9985   3.0081   3.0477   3.0510
  3.1040   3.1137   3.1215   3.1335   3.1387   3.1675   3.1689   3.2013
  3.2116   3.2390   3.2625   3.2721   3.2840   3.2962   3.3140   3.3321
  3.3467   3.3549   3.3743   3.3901   3.4078   3.4162   3.4271   3.4362
  3.4551   3.4584   3.4879   3.4982   3.5188   3.5277   3.5454   3.5604
  3.5798   3.5933   3.6155   3.6209   3.6251   3.6399   3.6658   3.6914
  3.7013   3.7072   3.7167   3.7527   3.7597   3.7744   3.7926   3.8055
  3.8064   3.8264   3.8697   3.8854   3.9007   3.9201   3.9366   3.9463
  3.9696   3.9826   4.0212   4.0283   4.0506   4.0577   4.0855   4.1048
  4.1212   4.1455   4.1726   4.1847   4.1884   4.2206   4.2416   4.2537
  4.2810   4.2902   4.3179   4.3398   4.3408   4.3690   4.3829   4.3991
  4.4027   4.4267   4.4386   4.4546   4.4821   4.5043   4.5191   4.5603
  4.5913   4.6142   4.6528   4.6754   4.7141   4.7301   4.7600   4.7788
  4.8055   4.8199   4.8331   4.8934   4.9361   4.9681   5.0816   5.0888
  5.1075   5.1478   5.1893   5.1958   5.2495   5.2733   5.2870   5.3185
  5.3644   5.4039   5.4142   5.4412   5.4606   5.5019   5.5460   5.5633
  5.5958   5.6136   5.6245   5.6919   5.7375   5.8237   5.8300   5.8699
  5.8888   6.0312   6.0497   6.1193   6.2277   6.2476   6.2990   6.3628
  6.4122   6.4805   9.1270  11.4714  12.9079  13.9144  14.1953  14.3579
 --------------------------------------------------------------
 
          Ground-State Mulliken Net Atomic Charges

     Atom                 Charge (a.u.)
  ----------------------------------------
      1 C                     0.020578
      2 C                    -0.253069
      3 C                     0.035456
      4 H                     0.179685
      5 C                    -0.251075
      6 S                    -0.001498
      7 C                    -0.272569
      8 H                     0.101783
      9 H                     0.106891
     10 H                     0.106586
     11 C                    -0.365964
     12 H                     0.113919
     13 H                     0.155199
     14 H                     0.129349
     15 H                     0.194729
  ----------------------------------------
  Sum of atomic charges =     0.000000

 -----------------------------------------------------------------
                    Cartesian Multipole Moments
 -----------------------------------------------------------------
    Charge (ESU x 10^10)
                -0.0000
    Dipole Moment (Debye)
         X       0.2378      Y      -0.0235      Z       0.9486
       Tot       0.9782
    Quadrupole Moments (Debye-Ang)
        XX     -52.7741     XY       3.6986     YY     -43.2317
        XZ      -0.1382     YZ       1.1572     ZZ     -48.7247
    Octopole Moments (Debye-Ang^2)
       XXX     -36.6002    XXY     -27.9955    XYY      -8.0702
       YYY     -75.0987    XXZ      -1.9170    XYZ      -0.1926
       YYZ      -6.3106    XZZ     -10.1933    YZZ     -21.9231
       ZZZ       2.3587
    Hexadecapole Moments (Debye-Ang^3)
      XXXX    -147.1626   XXXY    -104.1111   XXYY    -150.7515
      XYYY     -84.0634   YYYY    -750.9857   XXXZ     -32.2440
      XXYZ     -31.4385   XYYZ     -17.6029   YYYZ     -97.4101
      XXZZ    -110.4971   XYZZ     -29.1535   YYZZ    -206.3352
      XZZZ     -34.9872   YZZZ     -98.7388   ZZZZ    -482.1941
 -----------------------------------------------------------------
 Total job time:  157.51s(wall), 156.37s(cpu) 
 Sun Jul 10 10:04:01 2022

        *************************************************************
        *                                                           *
        *  Thank you very much for using Q-Chem.  Have a nice day.  *
        *                                                           *
        *************************************************************


remove work dirs ./qchem2932673.0 -- ./qchem2932673.-1
rm -rf ./qchem2932673
