You are running Q-Chem version: 5.4.0

#
# job setting
#
local host:  exp-4-13
current dir: /expanse/lustre/scratch/theleonzhang/temp_project/Hydrogenated_Impropers_Test
input file:  Methylthiophene_Phi_25_Theta_320_Methylthiophene_Hydrogenated_Improper.qcin
output file: 
nprocs     : 0
nthreads   : 1
#
# qchem installation setting
#
QC:          /cm/shared/apps/spack/cpu/opt/spack/linux-centos8-zen2/gcc-10.2.0/qchem-5.4-akfmr7b3t57bfs6qan3padb2wnb2i7cl
QCAUX:       /cm/shared/apps/spack/cpu/opt/spack/linux-centos8-zen2/gcc-10.2.0/qchem-5.4-akfmr7b3t57bfs6qan3padb2wnb2i7cl/qcaux
QCPROG:      /cm/shared/apps/spack/cpu/opt/spack/linux-centos8-zen2/gcc-10.2.0/qchem-5.4-akfmr7b3t57bfs6qan3padb2wnb2i7cl/exe/qcprog.exe_s
QCPROG_S:    /cm/shared/apps/spack/cpu/opt/spack/linux-centos8-zen2/gcc-10.2.0/qchem-5.4-akfmr7b3t57bfs6qan3padb2wnb2i7cl/exe/qcprog.exe_s
PARALLEL:    -DSERIAL
QCMPI:       mpich
#
# qchem directory setting
#
qcrun:       qchem2871833
QCSCRATCH:   .
QCLOCALSCR:  
QCTMPDIR:    .
QCFILEPREF:  ./qchem2871833
QCSAVEDIR:   
workdirs:    ./qchem2871833
workdir0:    ./qchem2871833
partmpdirs =  
#
# parallel setting
#
QCRSH:           ssh
QCMPI:           mpich
QCMPIRUN:        /cm/shared/apps/spack/cpu/opt/spack/linux-centos8-zen2/gcc-10.2.0/qchem-5.4-akfmr7b3t57bfs6qan3padb2wnb2i7cl/bin/mpi/mpirun_qchem
QCMACHINEFILE:   ./qchem2871833/hostfile

#
# env setting
#
exported envs:   QC QCAUX QCSCRATCH QCRUNNAME QCFILEPREF QCPROG QCPROG_S GUIFILE

Running Job 1 of 1 Methylthiophene_Phi_25_Theta_320_Methylthiophene_Hydrogenated_Improper.qcin
qchem Methylthiophene_Phi_25_Theta_320_Methylthiophene_Hydrogenated_Improper.qcin_2871833.0 ./qchem2871833/ 0
/cm/shared/apps/spack/cpu/opt/spack/linux-centos8-zen2/gcc-10.2.0/qchem-5.4-akfmr7b3t57bfs6qan3padb2wnb2i7cl/exe/qcprog.exe_s Methylthiophene_Phi_25_Theta_320_Methylthiophene_Hydrogenated_Improper.qcin_2871833.0 ./qchem2871833/
                  Welcome to Q-Chem
     A Quantum Leap Into The Future Of Chemistry


 Q-Chem 5.4, Q-Chem, Inc., Pleasanton, CA (2021)

 License issued to: University of California, San Diego (site)

 E. Epifanovsky,  A. T. B. Gilbert,  Xintian Feng,  Joonho Lee,  Yuezhi Mao,  
 N. Mardirossian,  P. Pokhilko,  A. White,  M. Wormit,  M. P. Coons,  
 A. L. Dempwolff,  Zhengting Gan,  D. Hait,  P. R. Horn,  L. D. Jacobson,  
 I. Kaliman,  J. Kussmann,  A. W. Lange,  Ka Un Lao,  D. S. Levine,  Jie Liu,  
 S. C. McKenzie,  A. F. Morrison,  K. Nanda,  F. Plasser,  D. R. Rehn,  
 M. L. Vidal,  Zhi-Qiang You,  Ying Zhu,  B. Alam,  B. Albrecht,  
 A. Aldossary,  E. Alguire,  J. H. Andersen,  D. Barton,  K. Begam,  A. Behn,  
 Y. A. Bernard,  E. J. Berquist,  H. Burton,  A. Carreras,  K. Carter-Fenk,  
 R. Chakraborty,  A. D. Chien,  K. D. Closser,  V. Cofer-Shabica,  
 S. Dasgupta,  Jia Deng,  M. de Wergifosse,  M. Diedenhofen,  Hainam Do,  
 S. Ehlert,  Po-Tung Fang,  S. Fatehi,  Qingguo Feng,  J. Gayvert,  
 Qinghui Ge,  G. Gidofalvi,  M. Goldey,  J. Gomes,  C. Gonzalez-Espinoza,  
 S. Gulania,  A. Gunina,  M. W. D. Hanson-Heine,  P. H. P. Harbach,  
 A. W. Hauser,  M. F. Herbst,  M. Hernandez Vera,  M. Hodecker,  
 Z. C. Holden,  S. Houck,  Xunkun Huang,  Kerwin Hui,  B. C. Huynh,  
 M. Ivanov,  Hyunjun Ji,  Hanjie Jiang,  B. Kaduk,  S. Kaehler,  
 K. Khistyaev,  Jaehoon Kim,  P. Klunzinger,  Z. Koczor-Benda,  
 Joong Hoon Koh,  D. Kosenkov,  L. Koulias,  T. Kowalczyk,  C. M. Krauter,  
 K. Kue,  A. Kunitsa,  T. Kus,  A. Landau,  K. V. Lawler,  D. Lefrancois,  
 S. Lehtola,  Rain Li,  Yi-Pei Li,  Jiashu Liang,  M. Liebenthal,  
 Hung-Hsuan Lin,  You-Sheng Lin,  Fenglai Liu,  Kuan-Yu Liu,  
 M. Loipersberger,  A. Luenser,  A. Manjanath,  P. Manohar,  E. Mansoor,  
 S. F. Manzer,  Shan-Ping Mao,  A. V. Marenich,  T. Markovich,  S. Mason,  
 S. A. Maurer,  P. F. McLaughlin,  M. F. S. J. Menger,  J.-M. Mewes,  
 S. A. Mewes,  P. Morgante,  J. W. Mullinax,  T. S. Nguyen-Beck,  
 K. J. Oosterbaan,  G. Paran,  Alexander C. Paul,  Suranjan K. Paul,  
 F. Pavosevic,  Zheng Pei,  S. Prager,  E. I. Proynov,  E. Ramos,  B. Rana,  
 A. E. Rask,  A. Rettig,  R. M. Richard,  F. Rob,  E. Rossomme,  T. Scheele,  
 M. Scheurer,  M. Schneider,  N. Sergueev,  S. M. Sharada,  W. Skomorowski,  
 D. W. Small,  C. J. Stein,  Yu-Chuan Su,  E. J. Sundstrom,  Zhen Tao,  
 J. Thirman,  T. Tsuchimochi,  N. M. Tubman,  S. P. Veccham,  O. Vydrov,  
 J. Wenzel,  J. Witte,  A. Yamada,  Kun Yao,  S. Yeganeh,  S. R. Yost,  
 A. Zech,  Igor Ying Zhang,  Xing Zhang,  Yu Zhang,  D. Zuev,  
 A. Aspuru-Guzik,  A. T. Bell,  N. A. Besley,  K. B. Bravaya,  B. R. Brooks,  
 D. Casanova,  Jeng-Da Chai,  S. Coriani,  C. J. Cramer,  
 A. E. DePrince, III,  R. A. DiStasio Jr.,  A. Dreuw,  B. D. Dunietz,  
 T. R. Furlani,  W. A. Goddard III,  S. Grimme,  S. Hammes-Schiffer,  
 T. Head-Gordon,  W. J. Hehre,  Chao-Ping Hsu,  T.-C. Jagau,  Yousung Jung,  
 A. Klamt,  Jing Kong,  D. S. Lambrecht,  WanZhen Liang,  N. J. Mayhall,  
 C. W. McCurdy,  J. B. Neaton,  C. Ochsenfeld,  J. A. Parkhill,  R. Peverati,  
 V. A. Rassolov,  Yihan Shao,  L. V. Slipchenko,  T. Stauch,  R. P. Steele,  
 J. E. Subotnik,  A. J. W. Thom,  A. Tkatchenko,  D. G. Truhlar,  
 T. Van Voorhis,  T. A. Wesolowski,  K. B. Whaley,  H. L. Woodcock III,  
 P. M. Zimmerman,  S. Faraji,  P. M. W. Gill,  M. Head-Gordon,  
 J. M. Herbert,  A. I. Krylov

 Contributors to earlier versions of Q-Chem not listed above: 
 R. D. Adamson,  B. Austin,  R. Baer,  J. Baker,  G. J. O. Beran,  
 K. Brandhorst,  S. T. Brown,  E. F. C. Byrd,  A. K. Chakraborty,  
 G. K. L. Chan,  Chun-Min Chang,  Yunqing Chen,  C.-L. Cheng,  
 Siu Hung Chien,  D. M. Chipman,  D. L. Crittenden,  H. Dachsel,  
 R. J. Doerksen,  A. D. Dutoi,  R. G. Edgar,  J. Fosso-Tande,  
 L. Fusti-Molnar,  D. Ghosh,  A. Ghysels,  A. Golubeva-Zadorozhnaya,  
 J. Gonthier,  M. S. Gordon,  S. R. Gwaltney,  G. Hawkins,  J. E. Herr,  
 A. Heyden,  S. Hirata,  E. G. Hohenstein,  G. Kedziora,  F. J. Keil,  
 C. Kelley,  Jihan Kim,  R. A. King,  R. Z. Khaliullin,  P. P. Korambath,  
 W. Kurlancheek,  A. Laurent,  A. M. Lee,  M. S. Lee,  S. V. Levchenko,  
 Ching Yeh Lin,  D. Liotard,  E. Livshits,  R. C. Lochan,  I. Lotan,  
 L. A. Martinez-Martinez,  P. E. Maslen,  N. Nair,  D. P. O'Neill,  
 D. Neuhauser,  E. Neuscamman,  C. M. Oana,  R. Olivares-Amaya,  R. Olson,  
 T. M. Perrine,  B. Peters,  P. A. Pieniazek,  A. Prociuk,  Y. M. Rhee,  
 J. Ritchie,  M. A. Rohrdanz,  E. Rosta,  N. J. Russ,  H. F. Schaefer III,  
 M. W. Schmidt,  N. E. Schultz,  S. Sharma,  N. Shenvi,  C. D. Sherrill,  
 A. C. Simmonett,  A. Sodt,  T. Stein,  D. Stuck,  K. S. Thanthiriwatte,  
 V. Vanovschi,  L. Vogt,  Tao Wang,  A. Warshel,  M. A. Watson,  
 C. F. Williams,  Q. Wu,  X. Xu,  Jun Yang,  W. Zhang,  Yan Zhao

 Please cite Q-Chem as follows:
 Y. Shao et al., Mol. Phys. 113, 184-215 (2015)
 DOI: 10.1080/00268976.2014.952696

 Q-Chem 5.4.0 for Intel X86 EM64T Linux

 Parts of Q-Chem use Armadillo 9.800.1 (Horizon Scraper).
 http://arma.sourceforge.net/

 Q-Chem begins on Sun Jul 10 10:26:19 2022  

 Host: 
0

     Scratch files written to ./qchem2871833//
 May1621 |scratch|qcdevops|jenkins|workspace|build_RNUM    
 Processing $rem in /cm/shared/apps/spack/cpu/opt/spack/linux-centos8-zen2/gcc-10.2.0/qchem-5.4-akfmr7b3t57bfs6qan3padb2wnb2i7cl/config/preferences:
 Processing $rem in /home/theleonzhang/.qchemrc:
 Symmetry turned off for PCM/SM12/SMD calculation
 Core orbitals will be frozen

 Checking the input file for inconsistencies... 	...done.

--------------------------------------------------------------
User input:
--------------------------------------------------------------
$molecule
0 1
C	-0.283348	-0.512746	0.011474
C	0.081652	0.269954	1.110874
C	0.666552	1.524154	0.788174
H	-0.074248	-0.064346	2.147574
C	0.759852	1.724154	-0.601026
S	0.114952	0.341354	-1.475326
C	1.126252	2.509954	1.826074
H	0.946352	2.124254	2.848174
H	0.593952	3.480154	1.737674
H	2.211552	2.725854	1.737674
C	-0.283348	-1.953446	0.011474
H	-1.110748	-1.953146	0.705574
H	-0.809848	-2.657246	-0.616126
H	0.325452	-2.472346	0.736974
H	1.160952	2.584454	-1.150126
$end

$rem
JOBTYPE		SP
EXCHANGE	HF
CORRELATION	pRIMP2
BASIS		cc-pvtz
METHOD		rimp2
AUX_BASIS	rimp2-cc-pvtz
SOLVENT_METHOD	PCM
PURECART	11111
SYMMETRY	false
MEM_TOTAL	110000
SCF_CONVERGENCE = 6
THRESH=10
$end



$solvent
dielectric 4.90
$end
--------------------------------------------------------------
 ----------------------------------------------------------------
             Standard Nuclear Orientation (Angstroms)
    I     Atom           X                Y                Z
 ----------------------------------------------------------------
    1      C      -0.2833480000    -0.5127460000     0.0114740000
    2      C       0.0816520000     0.2699540000     1.1108740000
    3      C       0.6665520000     1.5241540000     0.7881740000
    4      H      -0.0742480000    -0.0643460000     2.1475740000
    5      C       0.7598520000     1.7241540000    -0.6010260000
    6      S       0.1149520000     0.3413540000    -1.4753260000
    7      C       1.1262520000     2.5099540000     1.8260740000
    8      H       0.9463520000     2.1242540000     2.8481740000
    9      H       0.5939520000     3.4801540000     1.7376740000
   10      H       2.2115520000     2.7258540000     1.7376740000
   11      C      -0.2833480000    -1.9534460000     0.0114740000
   12      H      -1.1107480000    -1.9531460000     0.7055740000
   13      H      -0.8098480000    -2.6572460000    -0.6161260000
   14      H       0.3254520000    -2.4723460000     0.7369740000
   15      H       1.1609520000     2.5844540000    -1.1501260000
 ----------------------------------------------------------------
 Nuclear Repulsion Energy =         345.11791193 hartrees
 There are       30 alpha and       30 beta electrons

 Q-Chem warning in module forms1/BasisType.C, line 2236:

 You are not using the predefined 5D/6D in this basis set.

 Requested basis set is cc-pVTZ
 There are 120 shells and 326 basis functions

 Total QAlloc Memory Limit 110000 MB
 Mega-Array Size       188 MB
 MEM_STATIC part       192 MB
 Discretize the solute cavity surface with Lebedev spheres
	Using 110 Lebedev grid points for each H atom
	Using 194 Lebedev grid points for other atoms
	Atomic van der Waals radii will be scaled by 1.20
 Remove points where switching function is < 1.0e-08
 Keep 1069 surface tesserae and discard 1169 interior tesserae
 Molecular Surface Area = 158.393 Angst**2

                       Distance Matrix (Angstroms)
             C (  1)   C (  2)   C (  3)   H (  4)   C (  5)   S (  6)
   C (  2)  1.398043
   C (  3)  2.377927  1.421007
   H (  4)  2.192649  1.100367  2.218127
   C (  5)  2.543058  2.346328  1.406621  3.383675
   S (  6)  1.760314  2.587400  2.612797  3.650451  1.758531
   C (  7)  3.796901  2.572994  1.503450  2.858598  2.577314  4.077352
   H (  8)  4.063594  2.684091  2.163795  2.514445  3.477333  4.750012
   H (  9)  4.437643  3.310697  2.175490  3.630150  2.929262  4.517176
   H ( 10)  4.437660  3.310709  2.175467  3.630167  2.929224  4.517183
   C ( 11)  1.440700  2.507073  3.687719  2.859256  3.871455  2.763209
   H ( 12)  1.800310  2.555046  3.906051  2.592540  4.327688  3.394613
   H ( 13)  2.295640  3.513659  4.651443  3.860347  4.654122  3.253472
   H ( 14)  2.176470  2.778390  4.011357  2.819223  4.426009  3.585455
   H ( 15)  3.609427  3.410853  2.263995  4.406437  1.096589  2.496271
             C (  7)   H (  8)   H (  9)   H ( 10)   C ( 11)   H ( 12)
   H (  8)  1.107166
   H (  9)  1.110156  1.787697
   H ( 10)  1.110092  1.787698  1.784824
   C ( 11)  5.020128  5.117291  5.768313  5.576750
   H ( 12)  5.116537  5.044560  5.787226  5.830604  1.079984
   H ( 13)  6.034300  6.160224  6.721511  6.606587  1.080009  1.527478
   H ( 14)  5.162435  5.096216  6.041999  5.619614  1.079928  1.527490
   H ( 15)  2.977335  4.030414  3.076224  3.076222  4.901821  5.403153
             H ( 13)   H ( 14)
   H ( 14)  1.775943
   H ( 15)  5.625356  5.461724
 
 Requested basis set is rimp2-cc-pVTZ
 There are 250 shells and 848 basis functions
 A cutoff of  1.0D-10 yielded   6192 shell pairs
 There are     45320 function pairs (     58270 Cartesian)
 Smallest overlap matrix eigenvalue = 1.04E-04

 Scale SEOQF with 1.000000e-01/1.000000e-01/1.000000e-01

 Standard Electronic Orientation quadrupole field applied
 Nucleus-field energy     =     0.0000000016 hartrees
 Guess from superposition of atomic densities
 Warning:  Energy on first SCF cycle will be non-variational
 SAD guess density has 60.000000 electrons

 -----------------------------------------------------------------------
  General SCF calculation program by
  Eric Jon Sundstrom, Paul Horn, Yuezhi Mao, Dmitri Zuev, Alec White,
  David Stuck, Shaama M.S., Shane Yost, Joonho Lee, David Small,
  Daniel Levine, Susi Lehtola, Hugh Burton, Evgeny Epifanovsky,
  Bang C. Huynh
 -----------------------------------------------------------------------
 Hartree-Fock
 A restricted SCF calculation will be
 performed using DIIS
 SCF converges when DIIS error is below 1.0e-06
 ---------------------------------------
  Cycle       Energy         DIIS error
 ---------------------------------------
    1    -632.1088901333      2.92e-02  
    2    -629.3318728235      1.91e-03  
    3    -629.4012580373      6.43e-04  
    4    -629.4082858662      3.30e-04  
    5    -629.4101775055      6.28e-05  
    6    -629.4103050810      2.48e-05  
    7    -629.4103356611      1.13e-05  
    8    -629.4103443997      5.00e-06  
    9    -629.4103459650      1.78e-06  
   10    -629.4103461646      5.51e-07  Convergence criterion met
 ---------------------------------------
 SCF time:   CPU 144.02s  wall 145.00s 

************** Final PCM Free Energy Summary **************
 G_electrostatic  =      -0.00555347 hartree =      -3.48485629 kcal/mol
 G_cavitation     =       0.00000000 hartree =       0.00000000 kcal/mol
 G_dispersion     =       0.00000000 hartree =       0.00000000 kcal/mol
 G_repulsion      =       0.00000000 hartree =       0.00000000 kcal/mol
 --------------------------------------------------
 Non-electrostatic Free Energy =       0.00000000 hartree =       0.00000000 kcal/mol
 Total                         =      -0.00555347 hartree =      -3.48485629 kcal/mol
 --------------------------------------------------
 SCF Energy (H0 + V/2)                       =    -629.41034616 
 Solute Internal Energy (H0)                 =    -629.40479269 
 Total Free Energy (H0 + V/2 + non-elec)     =    -629.41034616 hartree
                                             = -394960.95336368 kcal/mol
***********************************************************

 SCF   energy in the final basis set =     -629.4103461646
 Total energy in the final basis set =     -629.4103461646


 --------------------------------------------------------------
  Generalized many-body perturbation theory program
  by Joonho Lee, Fazle Rob, Xintian Feng, Evgeny Epifanovsky

 No regularization used 
 (reg. param. = 0.0000e+00)
  (P|Q)^-1/2 Time:  CPU 0.48 s  wall 0.49 s

 In RI-MP2 calculation: 
 # of frozen core orbitals: 11

 Components of the RIMP2 correlation energy:
        aaaa    correlation energy =        -0.1460908820 a.u.
        abab    correlation energy =        -0.8884125896 a.u.
        bbbb    correlation energy =        -0.1460908820 a.u.
        non-Brillouin singles      =        -0.0000000000 a.u.
        total same-spin energy     =        -0.2921817641 a.u.
        total opposite-spin energy =        -0.8884125896 a.u.

 Total  RIMP2   correlation energy =        -1.1805943537 a.u.
        RIMP2         total energy =      -630.5909405183 a.u.

 RI-MP2 Energy Time:  CPU 11.07 s  wall 11.09 s
 
 --------------------------------------------------------------
 
                    Orbital Energies (a.u.)
 --------------------------------------------------------------
 
 Alpha MOs
 -- Occupied --
-91.9746 -11.2765 -11.2559 -11.2477 -11.2322 -11.2272 -11.2164  -8.9748
 -6.6558  -6.6551  -6.6546  -1.1615  -1.0544  -0.9984  -0.9396  -0.8838
 -0.7429  -0.7221  -0.6463  -0.5897  -0.5766  -0.5665  -0.5581  -0.5432
 -0.5113  -0.4908  -0.4622  -0.4422  -0.3373  -0.2935
 -- Virtual --
  0.0985   0.1448   0.1504   0.1759   0.1788   0.1894   0.2122   0.2211
  0.2331   0.2426   0.2549   0.2590   0.2962   0.3181   0.3414   0.3496
  0.3833   0.3909   0.4113   0.4238   0.4321   0.4517   0.4739   0.4814
  0.4902   0.4980   0.5273   0.5347   0.5440   0.5460   0.5711   0.5799
  0.5965   0.6049   0.6145   0.6180   0.6313   0.6346   0.6484   0.6538
  0.6595   0.6635   0.6838   0.7028   0.7146   0.7505   0.7606   0.7903
  0.8039   0.8180   0.8437   0.8595   0.8767   0.8816   0.9139   0.9312
  0.9570   0.9940   1.0080   1.0182   1.0305   1.0441   1.0610   1.0669
  1.0845   1.0861   1.1011   1.1234   1.1537   1.1718   1.2017   1.2056
  1.2213   1.2430   1.2547   1.2586   1.2857   1.3005   1.3097   1.3203
  1.3430   1.3793   1.3952   1.4172   1.4299   1.4386   1.4562   1.4793
  1.4901   1.5012   1.5132   1.5321   1.5421   1.5611   1.5760   1.5822
  1.5881   1.6255   1.6485   1.6750   1.6937   1.6993   1.7099   1.7433
  1.7593   1.7886   1.7990   1.8280   1.8885   1.9168   1.9322   1.9683
  1.9911   2.0373   2.1022   2.1480   2.1819   2.1889   2.2066   2.2220
  2.2652   2.2792   2.3571   2.4111   2.4478   2.4874   2.5368   2.5476
  2.5747   2.5849   2.6464   2.6642   2.6793   2.6881   2.7008   2.7418
  2.7496   2.7717   2.7779   2.7862   2.8138   2.8412   2.8568   2.8842
  2.9109   2.9239   2.9671   2.9868   3.0067   3.0370   3.0403   3.0584
  3.0897   3.1023   3.1129   3.1356   3.1515   3.1598   3.1690   3.1983
  3.2058   3.2411   3.2690   3.2723   3.3030   3.3114   3.3144   3.3266
  3.3480   3.3576   3.3847   3.3888   3.3947   3.4122   3.4302   3.4348
  3.4489   3.4851   3.4902   3.5100   3.5157   3.5241   3.5343   3.5628
  3.5780   3.5893   3.6096   3.6246   3.6443   3.6533   3.6656   3.6765
  3.6838   3.6967   3.7240   3.7290   3.7498   3.7768   3.7806   3.7986
  3.8292   3.8466   3.8553   3.8874   3.8914   3.9064   3.9475   3.9518
  3.9749   3.9930   4.0023   4.0233   4.0435   4.0474   4.0990   4.1160
  4.1203   4.1485   4.1753   4.1885   4.2217   4.2273   4.2453   4.2652
  4.2818   4.2905   4.3049   4.3344   4.3414   4.3790   4.3861   4.4018
  4.4160   4.4305   4.4449   4.4681   4.5010   4.5111   4.5366   4.5771
  4.6020   4.6259   4.6526   4.6867   4.7022   4.7218   4.7481   4.8084
  4.8233   4.8288   4.8770   4.8998   4.9100   4.9395   5.0653   5.1077
  5.1196   5.1230   5.1419   5.1863   5.2083   5.2627   5.2874   5.3197
  5.3636   5.3950   5.4177   5.4380   5.4811   5.4939   5.5517   5.5618
  5.5704   5.6246   5.6381   5.6728   5.7163   5.8001   5.8351   5.8799
  5.9458   5.9909   6.0727   6.1510   6.2276   6.2478   6.2851   6.3832
  6.4337   6.5298   9.2780  11.4288  12.9064  13.6839  14.1769  14.6192
 --------------------------------------------------------------
 
          Ground-State Mulliken Net Atomic Charges

     Atom                 Charge (a.u.)
  ----------------------------------------
      1 C                     0.042201
      2 C                    -0.290231
      3 C                     0.045707
      4 H                     0.177043
      5 C                    -0.256575
      6 S                    -0.000607
      7 C                    -0.272237
      8 H                     0.101232
      9 H                     0.107051
     10 H                     0.107032
     11 C                    -0.381300
     12 H                     0.131325
     13 H                     0.156534
     14 H                     0.141294
     15 H                     0.191529
  ----------------------------------------
  Sum of atomic charges =     0.000000

 -----------------------------------------------------------------
                    Cartesian Multipole Moments
 -----------------------------------------------------------------
    Charge (ESU x 10^10)
                -0.0000
    Dipole Moment (Debye)
         X       0.0835      Y      -0.3203      Z       1.9603
       Tot       1.9880
    Quadrupole Moments (Debye-Ang)
        XX     -52.3276     XY       4.6589     YY     -43.8279
        XZ       0.3320     YZ      -0.5088     ZZ     -48.6327
    Octopole Moments (Debye-Ang^2)
       XXX     -44.6233    XXY     -25.2775    XYY     -10.7650
       YYY     -74.2798    XXZ      -2.6606    XYZ      -2.1346
       YYZ      -3.0190    XZZ     -12.6699    YZZ     -22.3415
       ZZZ       0.9368
    Hexadecapole Moments (Debye-Ang^3)
      XXXX    -182.8947   XXXY    -124.2955   XXYY    -149.6160
      XYYY    -103.0383   YYYY    -717.6840   XXXZ     -38.9863
      XXYZ     -28.1392   XYYZ     -13.7088   YYYZ     -91.1882
      XXZZ    -115.2317   XYZZ     -34.8400   YYZZ    -198.1909
      XZZZ     -42.6950   YZZZ     -88.6603   ZZZZ    -484.0660
 -----------------------------------------------------------------
 Total job time:  156.34s(wall), 155.43s(cpu) 
 Sun Jul 10 10:28:55 2022

        *************************************************************
        *                                                           *
        *  Thank you very much for using Q-Chem.  Have a nice day.  *
        *                                                           *
        *************************************************************


remove work dirs ./qchem2871833.0 -- ./qchem2871833.-1
rm -rf ./qchem2871833
