You are running Q-Chem version: 5.4.0

#
# job setting
#
local host:  exp-6-19
current dir: /expanse/lustre/scratch/theleonzhang/temp_project/Hydrogenated_Impropers_Test
input file:  Methylthiophene_Phi_0_Theta_140_Methylthiophene_Hydrogenated_Improper.qcin
output file: 
nprocs     : 0
nthreads   : 1
#
# qchem installation setting
#
QC:          /cm/shared/apps/spack/cpu/opt/spack/linux-centos8-zen2/gcc-10.2.0/qchem-5.4-akfmr7b3t57bfs6qan3padb2wnb2i7cl
QCAUX:       /cm/shared/apps/spack/cpu/opt/spack/linux-centos8-zen2/gcc-10.2.0/qchem-5.4-akfmr7b3t57bfs6qan3padb2wnb2i7cl/qcaux
QCPROG:      /cm/shared/apps/spack/cpu/opt/spack/linux-centos8-zen2/gcc-10.2.0/qchem-5.4-akfmr7b3t57bfs6qan3padb2wnb2i7cl/exe/qcprog.exe_s
QCPROG_S:    /cm/shared/apps/spack/cpu/opt/spack/linux-centos8-zen2/gcc-10.2.0/qchem-5.4-akfmr7b3t57bfs6qan3padb2wnb2i7cl/exe/qcprog.exe_s
PARALLEL:    -DSERIAL
QCMPI:       mpich
#
# qchem directory setting
#
qcrun:       qchem2412850
QCSCRATCH:   .
QCLOCALSCR:  
QCTMPDIR:    .
QCFILEPREF:  ./qchem2412850
QCSAVEDIR:   
workdirs:    ./qchem2412850
workdir0:    ./qchem2412850
partmpdirs =  
#
# parallel setting
#
QCRSH:           ssh
QCMPI:           mpich
QCMPIRUN:        /cm/shared/apps/spack/cpu/opt/spack/linux-centos8-zen2/gcc-10.2.0/qchem-5.4-akfmr7b3t57bfs6qan3padb2wnb2i7cl/bin/mpi/mpirun_qchem
QCMACHINEFILE:   ./qchem2412850/hostfile

#
# env setting
#
exported envs:   QC QCAUX QCSCRATCH QCRUNNAME QCFILEPREF QCPROG QCPROG_S GUIFILE

Running Job 1 of 1 Methylthiophene_Phi_0_Theta_140_Methylthiophene_Hydrogenated_Improper.qcin
qchem Methylthiophene_Phi_0_Theta_140_Methylthiophene_Hydrogenated_Improper.qcin_2412850.0 ./qchem2412850/ 0
/cm/shared/apps/spack/cpu/opt/spack/linux-centos8-zen2/gcc-10.2.0/qchem-5.4-akfmr7b3t57bfs6qan3padb2wnb2i7cl/exe/qcprog.exe_s Methylthiophene_Phi_0_Theta_140_Methylthiophene_Hydrogenated_Improper.qcin_2412850.0 ./qchem2412850/
                  Welcome to Q-Chem
     A Quantum Leap Into The Future Of Chemistry


 Q-Chem 5.4, Q-Chem, Inc., Pleasanton, CA (2021)

 License issued to: University of California, San Diego (site)

 E. Epifanovsky,  A. T. B. Gilbert,  Xintian Feng,  Joonho Lee,  Yuezhi Mao,  
 N. Mardirossian,  P. Pokhilko,  A. White,  M. Wormit,  M. P. Coons,  
 A. L. Dempwolff,  Zhengting Gan,  D. Hait,  P. R. Horn,  L. D. Jacobson,  
 I. Kaliman,  J. Kussmann,  A. W. Lange,  Ka Un Lao,  D. S. Levine,  Jie Liu,  
 S. C. McKenzie,  A. F. Morrison,  K. Nanda,  F. Plasser,  D. R. Rehn,  
 M. L. Vidal,  Zhi-Qiang You,  Ying Zhu,  B. Alam,  B. Albrecht,  
 A. Aldossary,  E. Alguire,  J. H. Andersen,  D. Barton,  K. Begam,  A. Behn,  
 Y. A. Bernard,  E. J. Berquist,  H. Burton,  A. Carreras,  K. Carter-Fenk,  
 R. Chakraborty,  A. D. Chien,  K. D. Closser,  V. Cofer-Shabica,  
 S. Dasgupta,  Jia Deng,  M. de Wergifosse,  M. Diedenhofen,  Hainam Do,  
 S. Ehlert,  Po-Tung Fang,  S. Fatehi,  Qingguo Feng,  J. Gayvert,  
 Qinghui Ge,  G. Gidofalvi,  M. Goldey,  J. Gomes,  C. Gonzalez-Espinoza,  
 S. Gulania,  A. Gunina,  M. W. D. Hanson-Heine,  P. H. P. Harbach,  
 A. W. Hauser,  M. F. Herbst,  M. Hernandez Vera,  M. Hodecker,  
 Z. C. Holden,  S. Houck,  Xunkun Huang,  Kerwin Hui,  B. C. Huynh,  
 M. Ivanov,  Hyunjun Ji,  Hanjie Jiang,  B. Kaduk,  S. Kaehler,  
 K. Khistyaev,  Jaehoon Kim,  P. Klunzinger,  Z. Koczor-Benda,  
 Joong Hoon Koh,  D. Kosenkov,  L. Koulias,  T. Kowalczyk,  C. M. Krauter,  
 K. Kue,  A. Kunitsa,  T. Kus,  A. Landau,  K. V. Lawler,  D. Lefrancois,  
 S. Lehtola,  Rain Li,  Yi-Pei Li,  Jiashu Liang,  M. Liebenthal,  
 Hung-Hsuan Lin,  You-Sheng Lin,  Fenglai Liu,  Kuan-Yu Liu,  
 M. Loipersberger,  A. Luenser,  A. Manjanath,  P. Manohar,  E. Mansoor,  
 S. F. Manzer,  Shan-Ping Mao,  A. V. Marenich,  T. Markovich,  S. Mason,  
 S. A. Maurer,  P. F. McLaughlin,  M. F. S. J. Menger,  J.-M. Mewes,  
 S. A. Mewes,  P. Morgante,  J. W. Mullinax,  T. S. Nguyen-Beck,  
 K. J. Oosterbaan,  G. Paran,  Alexander C. Paul,  Suranjan K. Paul,  
 F. Pavosevic,  Zheng Pei,  S. Prager,  E. I. Proynov,  E. Ramos,  B. Rana,  
 A. E. Rask,  A. Rettig,  R. M. Richard,  F. Rob,  E. Rossomme,  T. Scheele,  
 M. Scheurer,  M. Schneider,  N. Sergueev,  S. M. Sharada,  W. Skomorowski,  
 D. W. Small,  C. J. Stein,  Yu-Chuan Su,  E. J. Sundstrom,  Zhen Tao,  
 J. Thirman,  T. Tsuchimochi,  N. M. Tubman,  S. P. Veccham,  O. Vydrov,  
 J. Wenzel,  J. Witte,  A. Yamada,  Kun Yao,  S. Yeganeh,  S. R. Yost,  
 A. Zech,  Igor Ying Zhang,  Xing Zhang,  Yu Zhang,  D. Zuev,  
 A. Aspuru-Guzik,  A. T. Bell,  N. A. Besley,  K. B. Bravaya,  B. R. Brooks,  
 D. Casanova,  Jeng-Da Chai,  S. Coriani,  C. J. Cramer,  
 A. E. DePrince, III,  R. A. DiStasio Jr.,  A. Dreuw,  B. D. Dunietz,  
 T. R. Furlani,  W. A. Goddard III,  S. Grimme,  S. Hammes-Schiffer,  
 T. Head-Gordon,  W. J. Hehre,  Chao-Ping Hsu,  T.-C. Jagau,  Yousung Jung,  
 A. Klamt,  Jing Kong,  D. S. Lambrecht,  WanZhen Liang,  N. J. Mayhall,  
 C. W. McCurdy,  J. B. Neaton,  C. Ochsenfeld,  J. A. Parkhill,  R. Peverati,  
 V. A. Rassolov,  Yihan Shao,  L. V. Slipchenko,  T. Stauch,  R. P. Steele,  
 J. E. Subotnik,  A. J. W. Thom,  A. Tkatchenko,  D. G. Truhlar,  
 T. Van Voorhis,  T. A. Wesolowski,  K. B. Whaley,  H. L. Woodcock III,  
 P. M. Zimmerman,  S. Faraji,  P. M. W. Gill,  M. Head-Gordon,  
 J. M. Herbert,  A. I. Krylov

 Contributors to earlier versions of Q-Chem not listed above: 
 R. D. Adamson,  B. Austin,  R. Baer,  J. Baker,  G. J. O. Beran,  
 K. Brandhorst,  S. T. Brown,  E. F. C. Byrd,  A. K. Chakraborty,  
 G. K. L. Chan,  Chun-Min Chang,  Yunqing Chen,  C.-L. Cheng,  
 Siu Hung Chien,  D. M. Chipman,  D. L. Crittenden,  H. Dachsel,  
 R. J. Doerksen,  A. D. Dutoi,  R. G. Edgar,  J. Fosso-Tande,  
 L. Fusti-Molnar,  D. Ghosh,  A. Ghysels,  A. Golubeva-Zadorozhnaya,  
 J. Gonthier,  M. S. Gordon,  S. R. Gwaltney,  G. Hawkins,  J. E. Herr,  
 A. Heyden,  S. Hirata,  E. G. Hohenstein,  G. Kedziora,  F. J. Keil,  
 C. Kelley,  Jihan Kim,  R. A. King,  R. Z. Khaliullin,  P. P. Korambath,  
 W. Kurlancheek,  A. Laurent,  A. M. Lee,  M. S. Lee,  S. V. Levchenko,  
 Ching Yeh Lin,  D. Liotard,  E. Livshits,  R. C. Lochan,  I. Lotan,  
 L. A. Martinez-Martinez,  P. E. Maslen,  N. Nair,  D. P. O'Neill,  
 D. Neuhauser,  E. Neuscamman,  C. M. Oana,  R. Olivares-Amaya,  R. Olson,  
 T. M. Perrine,  B. Peters,  P. A. Pieniazek,  A. Prociuk,  Y. M. Rhee,  
 J. Ritchie,  M. A. Rohrdanz,  E. Rosta,  N. J. Russ,  H. F. Schaefer III,  
 M. W. Schmidt,  N. E. Schultz,  S. Sharma,  N. Shenvi,  C. D. Sherrill,  
 A. C. Simmonett,  A. Sodt,  T. Stein,  D. Stuck,  K. S. Thanthiriwatte,  
 V. Vanovschi,  L. Vogt,  Tao Wang,  A. Warshel,  M. A. Watson,  
 C. F. Williams,  Q. Wu,  X. Xu,  Jun Yang,  W. Zhang,  Yan Zhao

 Please cite Q-Chem as follows:
 Y. Shao et al., Mol. Phys. 113, 184-215 (2015)
 DOI: 10.1080/00268976.2014.952696

 Q-Chem 5.4.0 for Intel X86 EM64T Linux

 Parts of Q-Chem use Armadillo 9.800.1 (Horizon Scraper).
 http://arma.sourceforge.net/

 Q-Chem begins on Sun Jul 10 08:47:47 2022  

 Host: 
0

     Scratch files written to ./qchem2412850//
 May1621 |scratch|qcdevops|jenkins|workspace|build_RNUM    
 Processing $rem in /cm/shared/apps/spack/cpu/opt/spack/linux-centos8-zen2/gcc-10.2.0/qchem-5.4-akfmr7b3t57bfs6qan3padb2wnb2i7cl/config/preferences:
 Processing $rem in /home/theleonzhang/.qchemrc:
 Symmetry turned off for PCM/SM12/SMD calculation
 Core orbitals will be frozen

 Checking the input file for inconsistencies... 	...done.

--------------------------------------------------------------
User input:
--------------------------------------------------------------
$molecule
0 1
C	0.004069	-0.576309	0.012353
C	0.004069	0.287291	1.111753
C	0.004169	1.671191	0.789053
H	0.004069	-0.081509	2.148453
C	0.004169	1.891891	-0.600147
S	0.004069	0.366091	-1.474447
C	0.004169	2.758991	1.826953
H	0.004169	2.333291	2.849053
H	-0.888231	3.413291	1.738553
H	0.896569	3.413191	1.738553
C	0.004069	-2.017009	0.012353
H	-0.823331	-2.017209	0.706453
H	0.530569	-2.720809	0.639953
H	-0.604731	-2.535909	-0.713147
H	0.004169	2.841091	-1.149247
$end

$rem
JOBTYPE		SP
EXCHANGE	HF
CORRELATION	pRIMP2
BASIS		cc-pvtz
METHOD		rimp2
AUX_BASIS	rimp2-cc-pvtz
SOLVENT_METHOD	PCM
PURECART	11111
SYMMETRY	false
MEM_TOTAL	110000
SCF_CONVERGENCE = 6
THRESH=10
$end



$solvent
dielectric 4.90
$end
--------------------------------------------------------------
 ----------------------------------------------------------------
             Standard Nuclear Orientation (Angstroms)
    I     Atom           X                Y                Z
 ----------------------------------------------------------------
    1      C       0.0040690000    -0.5763090000     0.0123530000
    2      C       0.0040690000     0.2872910000     1.1117530000
    3      C       0.0041690000     1.6711910000     0.7890530000
    4      H       0.0040690000    -0.0815090000     2.1484530000
    5      C       0.0041690000     1.8918910000    -0.6001470000
    6      S       0.0040690000     0.3660910000    -1.4744470000
    7      C       0.0041690000     2.7589910000     1.8269530000
    8      H       0.0041690000     2.3332910000     2.8490530000
    9      H      -0.8882310000     3.4132910000     1.7385530000
   10      H       0.8965690000     3.4131910000     1.7385530000
   11      C       0.0040690000    -2.0170090000     0.0123530000
   12      H      -0.8233310000    -2.0172090000     0.7064530000
   13      H       0.5305690000    -2.7208090000     0.6399530000
   14      H      -0.6047310000    -2.5359090000    -0.7131470000
   15      H       0.0041690000     2.8410910000    -1.1492470000
 ----------------------------------------------------------------
 Nuclear Repulsion Energy =         344.30586488 hartrees
 There are       30 alpha and       30 beta electrons

 Q-Chem warning in module forms1/BasisType.C, line 2236:

 You are not using the predefined 5D/6D in this basis set.

 Requested basis set is cc-pVTZ
 There are 120 shells and 326 basis functions

 Total QAlloc Memory Limit 110000 MB
 Mega-Array Size       188 MB
 MEM_STATIC part       192 MB
 Discretize the solute cavity surface with Lebedev spheres
	Using 110 Lebedev grid points for each H atom
	Using 194 Lebedev grid points for other atoms
	Atomic van der Waals radii will be scaled by 1.20
 Remove points where switching function is < 1.0e-08
 Keep 1065 surface tesserae and discard 1173 interior tesserae
 Molecular Surface Area = 159.650 Angst**2

                       Distance Matrix (Angstroms)
             C (  1)   C (  2)   C (  3)   H (  4)   C (  5)   S (  6)
   C (  2)  1.398029
   C (  3)  2.377923  1.421026
   H (  4)  2.192658  1.100346  2.218091
   C (  5)  2.543063  2.346347  1.406622  3.383653
   S (  6)  1.760310  2.587400  2.612799  3.650445  1.758541
   C (  7)  3.796972  2.573094  1.503511  2.858636  2.577339  4.077403
   H (  8)  4.063575  2.684088  2.163788  2.514379  3.477329  4.750003
   H (  9)  4.437665  3.310733  2.175509  3.630130  2.929258  4.517189
   H ( 10)  4.437616  3.310693  2.175429  3.630083  2.929206  4.517161
   C ( 11)  1.440700  2.553131  3.769096  2.882548  3.956596  2.808868
   H ( 12)  1.800711  2.481850  3.780988  2.551644  4.203929  3.334822
   H ( 13)  2.295640  3.090059  4.425945  3.085236  4.805408  3.778471
   H ( 14)  2.176470  3.416337  4.508553  3.818831  4.470899  3.061343
   H ( 15)  3.609423  3.410867  2.263995  4.406406  1.096582  2.496273
             C (  7)   H (  8)   H (  9)   H ( 10)   C ( 11)   H ( 12)
   H (  8)  1.107208
   H (  9)  1.110090  1.787733
   H ( 10)  1.110032  1.787672  1.784800
   C ( 11)  5.109105  5.193455  5.767506  5.767443
   H ( 12)  4.975175  4.919588  5.528089  5.789001  1.079984
   H ( 13)  5.631543  5.540862  6.391173  6.242342  1.080009  1.527259
   H ( 14)  5.904137  6.063756  6.440822  6.607308  1.079928  1.527121
   H ( 15)  2.977332  4.030417  3.076228  3.076210  4.995043  5.266067
             H ( 13)   H ( 14)
   H ( 14)  1.775943
   H ( 15)  5.866265  5.428911
 
 Requested basis set is rimp2-cc-pVTZ
 There are 250 shells and 848 basis functions
 A cutoff of  1.0D-10 yielded   6177 shell pairs
 There are     45243 function pairs (     58189 Cartesian)
 Smallest overlap matrix eigenvalue = 8.76E-05

 Scale SEOQF with 1.000000e+00/1.000000e-01/1.000000e-01

 Standard Electronic Orientation quadrupole field applied
 Nucleus-field energy     =     0.0000000034 hartrees
 Guess from superposition of atomic densities
 Warning:  Energy on first SCF cycle will be non-variational
 SAD guess density has 60.000000 electrons

 -----------------------------------------------------------------------
  General SCF calculation program by
  Eric Jon Sundstrom, Paul Horn, Yuezhi Mao, Dmitri Zuev, Alec White,
  David Stuck, Shaama M.S., Shane Yost, Joonho Lee, David Small,
  Daniel Levine, Susi Lehtola, Hugh Burton, Evgeny Epifanovsky,
  Bang C. Huynh
 -----------------------------------------------------------------------
 Hartree-Fock
 A restricted SCF calculation will be
 performed using DIIS
 SCF converges when DIIS error is below 1.0e-06
 ---------------------------------------
  Cycle       Energy         DIIS error
 ---------------------------------------
    1    -632.0988124146      2.91e-02  
    2    -629.3442574276      1.93e-03  
    3    -629.4142005135      6.76e-04  
    4    -629.4215444125      3.50e-04  
    5    -629.4236612214      6.17e-05  
    6    -629.4237883927      2.51e-05  
    7    -629.4238185863      1.10e-05  
    8    -629.4238271332      5.05e-06  
    9    -629.4238285830      1.66e-06  
   10    -629.4238287617      5.96e-07  Convergence criterion met
 ---------------------------------------
 SCF time:   CPU 143.57s  wall 145.00s 

************** Final PCM Free Energy Summary **************
 G_electrostatic  =      -0.00566171 hartree =      -3.55277777 kcal/mol
 G_cavitation     =       0.00000000 hartree =       0.00000000 kcal/mol
 G_dispersion     =       0.00000000 hartree =       0.00000000 kcal/mol
 G_repulsion      =       0.00000000 hartree =       0.00000000 kcal/mol
 --------------------------------------------------
 Non-electrostatic Free Energy =       0.00000000 hartree =       0.00000000 kcal/mol
 Total                         =      -0.00566171 hartree =      -3.55277777 kcal/mol
 --------------------------------------------------
 SCF Energy (H0 + V/2)                       =    -629.42382876 
 Solute Internal Energy (H0)                 =    -629.41816705 
 Total Free Energy (H0 + V/2 + non-elec)     =    -629.42382876 hartree
                                             = -394969.41382105 kcal/mol
***********************************************************

 SCF   energy in the final basis set =     -629.4238287617
 Total energy in the final basis set =     -629.4238287617


 --------------------------------------------------------------
  Generalized many-body perturbation theory program
  by Joonho Lee, Fazle Rob, Xintian Feng, Evgeny Epifanovsky

 No regularization used 
 (reg. param. = 0.0000e+00)
  (P|Q)^-1/2 Time:  CPU 0.48 s  wall 0.48 s

 In RI-MP2 calculation: 
 # of frozen core orbitals: 11

 Components of the RIMP2 correlation energy:
        aaaa    correlation energy =        -0.1454541733 a.u.
        abab    correlation energy =        -0.8859293340 a.u.
        bbbb    correlation energy =        -0.1454541733 a.u.
        non-Brillouin singles      =        -0.0000000000 a.u.
        total same-spin energy     =        -0.2909083466 a.u.
        total opposite-spin energy =        -0.8859293340 a.u.

 Total  RIMP2   correlation energy =        -1.1768376806 a.u.
        RIMP2         total energy =      -630.6006664423 a.u.

 RI-MP2 Energy Time:  CPU 11.00 s  wall 11.04 s
 
 --------------------------------------------------------------
 
                    Orbital Energies (a.u.)
 --------------------------------------------------------------
 
 Alpha MOs
 -- Occupied --
-91.9779 -11.2824 -11.2514 -11.2472 -11.2268 -11.2267 -11.2191  -8.9776
 -6.6586  -6.6581  -6.6575  -1.1603  -1.0550  -0.9985  -0.9406  -0.8835
 -0.7425  -0.7209  -0.6496  -0.5888  -0.5740  -0.5663  -0.5595  -0.5437
 -0.5085  -0.4900  -0.4663  -0.4501  -0.3373  -0.2938
 -- Virtual --
  0.1097   0.1450   0.1488   0.1754   0.1812   0.1899   0.2089   0.2239
  0.2343   0.2418   0.2527   0.2629   0.2944   0.3219   0.3442   0.3529
  0.3865   0.3912   0.4052   0.4155   0.4371   0.4534   0.4706   0.4933
  0.5022   0.5067   0.5162   0.5365   0.5455   0.5553   0.5647   0.5928
  0.5963   0.6077   0.6124   0.6221   0.6379   0.6403   0.6458   0.6507
  0.6548   0.6630   0.6822   0.7081   0.7331   0.7490   0.7680   0.7875
  0.8127   0.8340   0.8386   0.8528   0.8701   0.8981   0.9260   0.9340
  0.9458   0.9681   0.9831   1.0160   1.0303   1.0592   1.0646   1.0721
  1.0781   1.0888   1.1014   1.1483   1.1569   1.1809   1.1838   1.2189
  1.2232   1.2382   1.2566   1.2575   1.2761   1.2782   1.3188   1.3423
  1.3547   1.3797   1.3958   1.4104   1.4203   1.4419   1.4579   1.4829
  1.5012   1.5131   1.5329   1.5375   1.5508   1.5640   1.5709   1.5826
  1.5990   1.6248   1.6542   1.6847   1.6952   1.7050   1.7154   1.7452
  1.7515   1.7928   1.8079   1.8293   1.8870   1.9040   1.9356   1.9416
  2.0044   2.0407   2.0933   2.1497   2.1822   2.2022   2.2260   2.2413
  2.2681   2.2991   2.3670   2.4140   2.4612   2.4923   2.5258   2.5495
  2.5710   2.5992   2.6470   2.6663   2.6841   2.6955   2.7123   2.7349
  2.7446   2.7605   2.7685   2.7840   2.8101   2.8483   2.8595   2.8887
  2.9060   2.9218   2.9394   2.9730   2.9901   3.0076   3.0399   3.0422
  3.0841   3.0953   3.1140   3.1350   3.1543   3.1579   3.1764   3.1855
  3.2333   3.2426   3.2555   3.2790   3.3002   3.3052   3.3180   3.3276
  3.3354   3.3688   3.3809   3.4031   3.4129   3.4218   3.4331   3.4394
  3.4513   3.4668   3.4809   3.4984   3.5171   3.5228   3.5352   3.5647
  3.5816   3.5926   3.5990   3.6184   3.6274   3.6381   3.6589   3.6827
  3.6861   3.7001   3.7256   3.7395   3.7720   3.7854   3.7915   3.8045
  3.8165   3.8275   3.8449   3.8759   3.8971   3.9217   3.9363   3.9582
  3.9803   3.9892   4.0111   4.0315   4.0508   4.0663   4.1001   4.1068
  4.1218   4.1321   4.1611   4.1854   4.2164   4.2214   4.2316   4.2548
  4.2878   4.2937   4.3108   4.3357   4.3393   4.3792   4.3945   4.4002
  4.4050   4.4223   4.4387   4.4578   4.4697   4.5238   4.5531   4.5884
  4.6052   4.6116   4.6307   4.6707   4.7169   4.7450   4.7494   4.7851
  4.8109   4.8288   4.8735   4.8977   4.9288   4.9557   5.0670   5.1041
  5.1122   5.1420   5.1715   5.1940   5.2218   5.2654   5.2860   5.3253
  5.3721   5.4070   5.4194   5.4433   5.4770   5.5062   5.5538   5.5661
  5.5885   5.6249   5.6456   5.6598   5.6995   5.8191   5.8381   5.8825
  5.9077   6.0409   6.0999   6.1303   6.2273   6.2560   6.3072   6.3747
  6.4787   6.5706   9.1994  11.4376  12.9611  13.8824  14.1700  14.5481
 --------------------------------------------------------------
 
          Ground-State Mulliken Net Atomic Charges

     Atom                 Charge (a.u.)
  ----------------------------------------
      1 C                     0.070038
      2 C                    -0.288874
      3 C                     0.040140
      4 H                     0.176199
      5 C                    -0.269134
      6 S                    -0.002531
      7 C                    -0.275161
      8 H                     0.101219
      9 H                     0.107129
     10 H                     0.107309
     11 C                    -0.383781
     12 H                     0.136100
     13 H                     0.152049
     14 H                     0.136768
     15 H                     0.192531
  ----------------------------------------
  Sum of atomic charges =     0.000000

 -----------------------------------------------------------------
                    Cartesian Multipole Moments
 -----------------------------------------------------------------
    Charge (ESU x 10^10)
                -0.0000
    Dipole Moment (Debye)
         X      -0.5547      Y      -0.4758      Z       1.8689
       Tot       2.0068
    Quadrupole Moments (Debye-Ang)
        XX     -54.1042     XY       1.1611     YY     -42.0180
        XZ       0.2795     YZ      -0.7123     ZZ     -48.6701
    Octopole Moments (Debye-Ang^2)
       XXX       0.5519    XXY     -31.9732    XYY      -1.7205
       YYY     -81.1195    XXZ      -2.0279    XYZ      -1.1373
       YYZ      -1.8998    XZZ       0.1739    YZZ     -25.2977
       ZZZ       0.5390
    Hexadecapole Moments (Debye-Ang^3)
      XXXX     -78.6372   XXXY      -2.6487   XXYY    -161.2032
      XYYY       1.0737   YYYY    -812.4578   XXXZ      -0.4624
      XXYZ     -29.4104   XYYZ       3.6705   YYYZ    -108.3348
      XXZZ    -101.2997   XYZZ      -0.7038   YYZZ    -213.3278
      XZZZ      -0.3126   YZZZ     -99.1711   ZZZZ    -484.1677
 -----------------------------------------------------------------
 Total job time:  156.89s(wall), 154.92s(cpu) 
 Sun Jul 10 08:50:24 2022

        *************************************************************
        *                                                           *
        *  Thank you very much for using Q-Chem.  Have a nice day.  *
        *                                                           *
        *************************************************************


remove work dirs ./qchem2412850.0 -- ./qchem2412850.-1
rm -rf ./qchem2412850
You are running Q-Chem version: 5.4.0

#
# job setting
#
local host:  exp-1-33
current dir: /expanse/lustre/scratch/theleonzhang/temp_project/Hydrogenated_Impropers_Test
input file:  Methylthiophene_Phi_0_Theta_140_Methylthiophene_Hydrogenated_Improper.qcin
output file: 
nprocs     : 0
nthreads   : 1
#
# qchem installation setting
#
QC:          /cm/shared/apps/spack/cpu/opt/spack/linux-centos8-zen2/gcc-10.2.0/qchem-5.4-akfmr7b3t57bfs6qan3padb2wnb2i7cl
QCAUX:       /cm/shared/apps/spack/cpu/opt/spack/linux-centos8-zen2/gcc-10.2.0/qchem-5.4-akfmr7b3t57bfs6qan3padb2wnb2i7cl/qcaux
QCPROG:      /cm/shared/apps/spack/cpu/opt/spack/linux-centos8-zen2/gcc-10.2.0/qchem-5.4-akfmr7b3t57bfs6qan3padb2wnb2i7cl/exe/qcprog.exe_s
QCPROG_S:    /cm/shared/apps/spack/cpu/opt/spack/linux-centos8-zen2/gcc-10.2.0/qchem-5.4-akfmr7b3t57bfs6qan3padb2wnb2i7cl/exe/qcprog.exe_s
PARALLEL:    -DSERIAL
QCMPI:       mpich
#
# qchem directory setting
#
qcrun:       qchem2093446
QCSCRATCH:   .
QCLOCALSCR:  
QCTMPDIR:    .
QCFILEPREF:  ./qchem2093446
QCSAVEDIR:   
workdirs:    ./qchem2093446
workdir0:    ./qchem2093446
partmpdirs =  
#
# parallel setting
#
QCRSH:           ssh
QCMPI:           mpich
QCMPIRUN:        /cm/shared/apps/spack/cpu/opt/spack/linux-centos8-zen2/gcc-10.2.0/qchem-5.4-akfmr7b3t57bfs6qan3padb2wnb2i7cl/bin/mpi/mpirun_qchem
QCMACHINEFILE:   ./qchem2093446/hostfile

#
# env setting
#
exported envs:   QC QCAUX QCSCRATCH QCRUNNAME QCFILEPREF QCPROG QCPROG_S GUIFILE

Running Job 1 of 1 Methylthiophene_Phi_0_Theta_140_Methylthiophene_Hydrogenated_Improper.qcin
qchem Methylthiophene_Phi_0_Theta_140_Methylthiophene_Hydrogenated_Improper.qcin_2093446.0 ./qchem2093446/ 0
/cm/shared/apps/spack/cpu/opt/spack/linux-centos8-zen2/gcc-10.2.0/qchem-5.4-akfmr7b3t57bfs6qan3padb2wnb2i7cl/exe/qcprog.exe_s Methylthiophene_Phi_0_Theta_140_Methylthiophene_Hydrogenated_Improper.qcin_2093446.0 ./qchem2093446/
                  Welcome to Q-Chem
     A Quantum Leap Into The Future Of Chemistry


 Q-Chem 5.4, Q-Chem, Inc., Pleasanton, CA (2021)

 License issued to: University of California, San Diego (site)

 E. Epifanovsky,  A. T. B. Gilbert,  Xintian Feng,  Joonho Lee,  Yuezhi Mao,  
 N. Mardirossian,  P. Pokhilko,  A. White,  M. Wormit,  M. P. Coons,  
 A. L. Dempwolff,  Zhengting Gan,  D. Hait,  P. R. Horn,  L. D. Jacobson,  
 I. Kaliman,  J. Kussmann,  A. W. Lange,  Ka Un Lao,  D. S. Levine,  Jie Liu,  
 S. C. McKenzie,  A. F. Morrison,  K. Nanda,  F. Plasser,  D. R. Rehn,  
 M. L. Vidal,  Zhi-Qiang You,  Ying Zhu,  B. Alam,  B. Albrecht,  
 A. Aldossary,  E. Alguire,  J. H. Andersen,  D. Barton,  K. Begam,  A. Behn,  
 Y. A. Bernard,  E. J. Berquist,  H. Burton,  A. Carreras,  K. Carter-Fenk,  
 R. Chakraborty,  A. D. Chien,  K. D. Closser,  V. Cofer-Shabica,  
 S. Dasgupta,  Jia Deng,  M. de Wergifosse,  M. Diedenhofen,  Hainam Do,  
 S. Ehlert,  Po-Tung Fang,  S. Fatehi,  Qingguo Feng,  J. Gayvert,  
 Qinghui Ge,  G. Gidofalvi,  M. Goldey,  J. Gomes,  C. Gonzalez-Espinoza,  
 S. Gulania,  A. Gunina,  M. W. D. Hanson-Heine,  P. H. P. Harbach,  
 A. W. Hauser,  M. F. Herbst,  M. Hernandez Vera,  M. Hodecker,  
 Z. C. Holden,  S. Houck,  Xunkun Huang,  Kerwin Hui,  B. C. Huynh,  
 M. Ivanov,  Hyunjun Ji,  Hanjie Jiang,  B. Kaduk,  S. Kaehler,  
 K. Khistyaev,  Jaehoon Kim,  P. Klunzinger,  Z. Koczor-Benda,  
 Joong Hoon Koh,  D. Kosenkov,  L. Koulias,  T. Kowalczyk,  C. M. Krauter,  
 K. Kue,  A. Kunitsa,  T. Kus,  A. Landau,  K. V. Lawler,  D. Lefrancois,  
 S. Lehtola,  Rain Li,  Yi-Pei Li,  Jiashu Liang,  M. Liebenthal,  
 Hung-Hsuan Lin,  You-Sheng Lin,  Fenglai Liu,  Kuan-Yu Liu,  
 M. Loipersberger,  A. Luenser,  A. Manjanath,  P. Manohar,  E. Mansoor,  
 S. F. Manzer,  Shan-Ping Mao,  A. V. Marenich,  T. Markovich,  S. Mason,  
 S. A. Maurer,  P. F. McLaughlin,  M. F. S. J. Menger,  J.-M. Mewes,  
 S. A. Mewes,  P. Morgante,  J. W. Mullinax,  T. S. Nguyen-Beck,  
 K. J. Oosterbaan,  G. Paran,  Alexander C. Paul,  Suranjan K. Paul,  
 F. Pavosevic,  Zheng Pei,  S. Prager,  E. I. Proynov,  E. Ramos,  B. Rana,  
 A. E. Rask,  A. Rettig,  R. M. Richard,  F. Rob,  E. Rossomme,  T. Scheele,  
 M. Scheurer,  M. Schneider,  N. Sergueev,  S. M. Sharada,  W. Skomorowski,  
 D. W. Small,  C. J. Stein,  Yu-Chuan Su,  E. J. Sundstrom,  Zhen Tao,  
 J. Thirman,  T. Tsuchimochi,  N. M. Tubman,  S. P. Veccham,  O. Vydrov,  
 J. Wenzel,  J. Witte,  A. Yamada,  Kun Yao,  S. Yeganeh,  S. R. Yost,  
 A. Zech,  Igor Ying Zhang,  Xing Zhang,  Yu Zhang,  D. Zuev,  
 A. Aspuru-Guzik,  A. T. Bell,  N. A. Besley,  K. B. Bravaya,  B. R. Brooks,  
 D. Casanova,  Jeng-Da Chai,  S. Coriani,  C. J. Cramer,  
 A. E. DePrince, III,  R. A. DiStasio Jr.,  A. Dreuw,  B. D. Dunietz,  
 T. R. Furlani,  W. A. Goddard III,  S. Grimme,  S. Hammes-Schiffer,  
 T. Head-Gordon,  W. J. Hehre,  Chao-Ping Hsu,  T.-C. Jagau,  Yousung Jung,  
 A. Klamt,  Jing Kong,  D. S. Lambrecht,  WanZhen Liang,  N. J. Mayhall,  
 C. W. McCurdy,  J. B. Neaton,  C. Ochsenfeld,  J. A. Parkhill,  R. Peverati,  
 V. A. Rassolov,  Yihan Shao,  L. V. Slipchenko,  T. Stauch,  R. P. Steele,  
 J. E. Subotnik,  A. J. W. Thom,  A. Tkatchenko,  D. G. Truhlar,  
 T. Van Voorhis,  T. A. Wesolowski,  K. B. Whaley,  H. L. Woodcock III,  
 P. M. Zimmerman,  S. Faraji,  P. M. W. Gill,  M. Head-Gordon,  
 J. M. Herbert,  A. I. Krylov

 Contributors to earlier versions of Q-Chem not listed above: 
 R. D. Adamson,  B. Austin,  R. Baer,  J. Baker,  G. J. O. Beran,  
 K. Brandhorst,  S. T. Brown,  E. F. C. Byrd,  A. K. Chakraborty,  
 G. K. L. Chan,  Chun-Min Chang,  Yunqing Chen,  C.-L. Cheng,  
 Siu Hung Chien,  D. M. Chipman,  D. L. Crittenden,  H. Dachsel,  
 R. J. Doerksen,  A. D. Dutoi,  R. G. Edgar,  J. Fosso-Tande,  
 L. Fusti-Molnar,  D. Ghosh,  A. Ghysels,  A. Golubeva-Zadorozhnaya,  
 J. Gonthier,  M. S. Gordon,  S. R. Gwaltney,  G. Hawkins,  J. E. Herr,  
 A. Heyden,  S. Hirata,  E. G. Hohenstein,  G. Kedziora,  F. J. Keil,  
 C. Kelley,  Jihan Kim,  R. A. King,  R. Z. Khaliullin,  P. P. Korambath,  
 W. Kurlancheek,  A. Laurent,  A. M. Lee,  M. S. Lee,  S. V. Levchenko,  
 Ching Yeh Lin,  D. Liotard,  E. Livshits,  R. C. Lochan,  I. Lotan,  
 L. A. Martinez-Martinez,  P. E. Maslen,  N. Nair,  D. P. O'Neill,  
 D. Neuhauser,  E. Neuscamman,  C. M. Oana,  R. Olivares-Amaya,  R. Olson,  
 T. M. Perrine,  B. Peters,  P. A. Pieniazek,  A. Prociuk,  Y. M. Rhee,  
 J. Ritchie,  M. A. Rohrdanz,  E. Rosta,  N. J. Russ,  H. F. Schaefer III,  
 M. W. Schmidt,  N. E. Schultz,  S. Sharma,  N. Shenvi,  C. D. Sherrill,  
 A. C. Simmonett,  A. Sodt,  T. Stein,  D. Stuck,  K. S. Thanthiriwatte,  
 V. Vanovschi,  L. Vogt,  Tao Wang,  A. Warshel,  M. A. Watson,  
 C. F. Williams,  Q. Wu,  X. Xu,  Jun Yang,  W. Zhang,  Yan Zhao

 Please cite Q-Chem as follows:
 Y. Shao et al., Mol. Phys. 113, 184-215 (2015)
 DOI: 10.1080/00268976.2014.952696

 Q-Chem 5.4.0 for Intel X86 EM64T Linux

 Parts of Q-Chem use Armadillo 9.800.1 (Horizon Scraper).
 http://arma.sourceforge.net/

 Q-Chem begins on Sun Jul 10 09:18:42 2022  

 Host: 
0

     Scratch files written to ./qchem2093446//
 May1621 |scratch|qcdevops|jenkins|workspace|build_RNUM    
 Processing $rem in /cm/shared/apps/spack/cpu/opt/spack/linux-centos8-zen2/gcc-10.2.0/qchem-5.4-akfmr7b3t57bfs6qan3padb2wnb2i7cl/config/preferences:
 Processing $rem in /home/theleonzhang/.qchemrc:
 Symmetry turned off for PCM/SM12/SMD calculation
 Core orbitals will be frozen

 Checking the input file for inconsistencies... 	...done.

--------------------------------------------------------------
User input:
--------------------------------------------------------------
$molecule
0 1
C	0.004069	-0.576309	0.012353
C	0.004069	0.287291	1.111753
C	0.004169	1.671191	0.789053
H	0.004069	-0.081509	2.148453
C	0.004169	1.891891	-0.600147
S	0.004069	0.366091	-1.474447
C	0.004169	2.758991	1.826953
H	0.004169	2.333291	2.849053
H	-0.888231	3.413291	1.738553
H	0.896569	3.413191	1.738553
C	0.004069	-2.017009	0.012353
H	-0.823331	-2.017209	0.706453
H	0.530569	-2.720809	0.639953
H	-0.604731	-2.535909	-0.713147
H	0.004169	2.841091	-1.149247
$end

$rem
JOBTYPE		SP
EXCHANGE	HF
CORRELATION	pRIMP2
BASIS		cc-pvtz
METHOD		rimp2
AUX_BASIS	rimp2-cc-pvtz
SOLVENT_METHOD	PCM
PURECART	11111
SYMMETRY	false
MEM_TOTAL	110000
SCF_CONVERGENCE = 6
THRESH=10
$end



$solvent
dielectric 4.90
$end
--------------------------------------------------------------
 ----------------------------------------------------------------
             Standard Nuclear Orientation (Angstroms)
    I     Atom           X                Y                Z
 ----------------------------------------------------------------
    1      C       0.0040690000    -0.5763090000     0.0123530000
    2      C       0.0040690000     0.2872910000     1.1117530000
    3      C       0.0041690000     1.6711910000     0.7890530000
    4      H       0.0040690000    -0.0815090000     2.1484530000
    5      C       0.0041690000     1.8918910000    -0.6001470000
    6      S       0.0040690000     0.3660910000    -1.4744470000
    7      C       0.0041690000     2.7589910000     1.8269530000
    8      H       0.0041690000     2.3332910000     2.8490530000
    9      H      -0.8882310000     3.4132910000     1.7385530000
   10      H       0.8965690000     3.4131910000     1.7385530000
   11      C       0.0040690000    -2.0170090000     0.0123530000
   12      H      -0.8233310000    -2.0172090000     0.7064530000
   13      H       0.5305690000    -2.7208090000     0.6399530000
   14      H      -0.6047310000    -2.5359090000    -0.7131470000
   15      H       0.0041690000     2.8410910000    -1.1492470000
 ----------------------------------------------------------------
 Nuclear Repulsion Energy =         344.30586488 hartrees
 There are       30 alpha and       30 beta electrons

 Q-Chem warning in module forms1/BasisType.C, line 2236:

 You are not using the predefined 5D/6D in this basis set.

 Requested basis set is cc-pVTZ
 There are 120 shells and 326 basis functions

 Total QAlloc Memory Limit 110000 MB
 Mega-Array Size       188 MB
 MEM_STATIC part       192 MB
 Discretize the solute cavity surface with Lebedev spheres
	Using 110 Lebedev grid points for each H atom
	Using 194 Lebedev grid points for other atoms
	Atomic van der Waals radii will be scaled by 1.20
 Remove points where switching function is < 1.0e-08
 Keep 1065 surface tesserae and discard 1173 interior tesserae
 Molecular Surface Area = 159.650 Angst**2

                       Distance Matrix (Angstroms)
             C (  1)   C (  2)   C (  3)   H (  4)   C (  5)   S (  6)
   C (  2)  1.398029
   C (  3)  2.377923  1.421026
   H (  4)  2.192658  1.100346  2.218091
   C (  5)  2.543063  2.346347  1.406622  3.383653
   S (  6)  1.760310  2.587400  2.612799  3.650445  1.758541
   C (  7)  3.796972  2.573094  1.503511  2.858636  2.577339  4.077403
   H (  8)  4.063575  2.684088  2.163788  2.514379  3.477329  4.750003
   H (  9)  4.437665  3.310733  2.175509  3.630130  2.929258  4.517189
   H ( 10)  4.437616  3.310693  2.175429  3.630083  2.929206  4.517161
   C ( 11)  1.440700  2.553131  3.769096  2.882548  3.956596  2.808868
   H ( 12)  1.800711  2.481850  3.780988  2.551644  4.203929  3.334822
   H ( 13)  2.295640  3.090059  4.425945  3.085236  4.805408  3.778471
   H ( 14)  2.176470  3.416337  4.508553  3.818831  4.470899  3.061343
   H ( 15)  3.609423  3.410867  2.263995  4.406406  1.096582  2.496273
             C (  7)   H (  8)   H (  9)   H ( 10)   C ( 11)   H ( 12)
   H (  8)  1.107208
   H (  9)  1.110090  1.787733
   H ( 10)  1.110032  1.787672  1.784800
   C ( 11)  5.109105  5.193455  5.767506  5.767443
   H ( 12)  4.975175  4.919588  5.528089  5.789001  1.079984
   H ( 13)  5.631543  5.540862  6.391173  6.242342  1.080009  1.527259
   H ( 14)  5.904137  6.063756  6.440822  6.607308  1.079928  1.527121
   H ( 15)  2.977332  4.030417  3.076228  3.076210  4.995043  5.266067
             H ( 13)   H ( 14)
   H ( 14)  1.775943
   H ( 15)  5.866265  5.428911
 
 Requested basis set is rimp2-cc-pVTZ
 There are 250 shells and 848 basis functions
 A cutoff of  1.0D-10 yielded   6177 shell pairs
 There are     45243 function pairs (     58189 Cartesian)
 Smallest overlap matrix eigenvalue = 8.76E-05

 Scale SEOQF with 1.000000e+00/1.000000e-01/1.000000e-01

 Standard Electronic Orientation quadrupole field applied
 Nucleus-field energy     =     0.0000000034 hartrees
 Guess from superposition of atomic densities
 Warning:  Energy on first SCF cycle will be non-variational
 SAD guess density has 60.000000 electrons

 -----------------------------------------------------------------------
  General SCF calculation program by
  Eric Jon Sundstrom, Paul Horn, Yuezhi Mao, Dmitri Zuev, Alec White,
  David Stuck, Shaama M.S., Shane Yost, Joonho Lee, David Small,
  Daniel Levine, Susi Lehtola, Hugh Burton, Evgeny Epifanovsky,
  Bang C. Huynh
 -----------------------------------------------------------------------
 Hartree-Fock
 A restricted SCF calculation will be
 performed using DIIS
 SCF converges when DIIS error is below 1.0e-06
 ---------------------------------------
  Cycle       Energy         DIIS error
 ---------------------------------------
    1    -632.0988124146      2.91e-02  
    2    -629.3442574276      1.93e-03  
    3    -629.4142005135      6.76e-04  
    4    -629.4215444125      3.50e-04  
    5    -629.4236612214      6.17e-05  
    6    -629.4237883927      2.51e-05  
    7    -629.4238185863      1.10e-05  
    8    -629.4238271332      5.05e-06  
    9    -629.4238285830      1.66e-06  
   10    -629.4238287617      5.96e-07  Convergence criterion met
 ---------------------------------------
 SCF time:   CPU 143.81s  wall 144.00s 

************** Final PCM Free Energy Summary **************
 G_electrostatic  =      -0.00566171 hartree =      -3.55277777 kcal/mol
 G_cavitation     =       0.00000000 hartree =       0.00000000 kcal/mol
 G_dispersion     =       0.00000000 hartree =       0.00000000 kcal/mol
 G_repulsion      =       0.00000000 hartree =       0.00000000 kcal/mol
 --------------------------------------------------
 Non-electrostatic Free Energy =       0.00000000 hartree =       0.00000000 kcal/mol
 Total                         =      -0.00566171 hartree =      -3.55277777 kcal/mol
 --------------------------------------------------
 SCF Energy (H0 + V/2)                       =    -629.42382876 
 Solute Internal Energy (H0)                 =    -629.41816705 
 Total Free Energy (H0 + V/2 + non-elec)     =    -629.42382876 hartree
                                             = -394969.41382105 kcal/mol
***********************************************************

 SCF   energy in the final basis set =     -629.4238287617
 Total energy in the final basis set =     -629.4238287617


 --------------------------------------------------------------
  Generalized many-body perturbation theory program
  by Joonho Lee, Fazle Rob, Xintian Feng, Evgeny Epifanovsky

 No regularization used 
 (reg. param. = 0.0000e+00)
  (P|Q)^-1/2 Time:  CPU 0.48 s  wall 0.48 s

 In RI-MP2 calculation: 
 # of frozen core orbitals: 11

 Components of the RIMP2 correlation energy:
        aaaa    correlation energy =        -0.1454541733 a.u.
        abab    correlation energy =        -0.8859293340 a.u.
        bbbb    correlation energy =        -0.1454541733 a.u.
        non-Brillouin singles      =        -0.0000000000 a.u.
        total same-spin energy     =        -0.2909083466 a.u.
        total opposite-spin energy =        -0.8859293340 a.u.

 Total  RIMP2   correlation energy =        -1.1768376806 a.u.
        RIMP2         total energy =      -630.6006664423 a.u.

 RI-MP2 Energy Time:  CPU 11.03 s  wall 11.07 s
 
 --------------------------------------------------------------
 
                    Orbital Energies (a.u.)
 --------------------------------------------------------------
 
 Alpha MOs
 -- Occupied --
-91.9779 -11.2824 -11.2514 -11.2472 -11.2268 -11.2267 -11.2191  -8.9776
 -6.6586  -6.6581  -6.6575  -1.1603  -1.0550  -0.9985  -0.9406  -0.8835
 -0.7425  -0.7209  -0.6496  -0.5888  -0.5740  -0.5663  -0.5595  -0.5437
 -0.5085  -0.4900  -0.4663  -0.4501  -0.3373  -0.2938
 -- Virtual --
  0.1097   0.1450   0.1488   0.1754   0.1812   0.1899   0.2089   0.2239
  0.2343   0.2418   0.2527   0.2629   0.2944   0.3219   0.3442   0.3529
  0.3865   0.3912   0.4052   0.4155   0.4371   0.4534   0.4706   0.4933
  0.5022   0.5067   0.5162   0.5365   0.5455   0.5553   0.5647   0.5928
  0.5963   0.6077   0.6124   0.6221   0.6379   0.6403   0.6458   0.6507
  0.6548   0.6630   0.6822   0.7081   0.7331   0.7490   0.7680   0.7875
  0.8127   0.8340   0.8386   0.8528   0.8701   0.8981   0.9260   0.9340
  0.9458   0.9681   0.9831   1.0160   1.0303   1.0592   1.0646   1.0721
  1.0781   1.0888   1.1014   1.1483   1.1569   1.1809   1.1838   1.2189
  1.2232   1.2382   1.2566   1.2575   1.2761   1.2782   1.3188   1.3423
  1.3547   1.3797   1.3958   1.4104   1.4203   1.4419   1.4579   1.4829
  1.5012   1.5131   1.5329   1.5375   1.5508   1.5640   1.5709   1.5826
  1.5990   1.6248   1.6542   1.6847   1.6952   1.7050   1.7154   1.7452
  1.7515   1.7928   1.8079   1.8293   1.8870   1.9040   1.9356   1.9416
  2.0044   2.0407   2.0933   2.1497   2.1822   2.2022   2.2260   2.2413
  2.2681   2.2991   2.3670   2.4140   2.4612   2.4923   2.5258   2.5495
  2.5710   2.5992   2.6470   2.6663   2.6841   2.6955   2.7123   2.7349
  2.7446   2.7605   2.7685   2.7840   2.8101   2.8483   2.8595   2.8887
  2.9060   2.9218   2.9394   2.9730   2.9901   3.0076   3.0399   3.0422
  3.0841   3.0953   3.1140   3.1350   3.1543   3.1579   3.1764   3.1855
  3.2333   3.2426   3.2555   3.2790   3.3002   3.3052   3.3180   3.3276
  3.3354   3.3688   3.3809   3.4031   3.4129   3.4218   3.4331   3.4394
  3.4513   3.4668   3.4809   3.4984   3.5171   3.5228   3.5352   3.5647
  3.5816   3.5926   3.5990   3.6184   3.6274   3.6381   3.6589   3.6827
  3.6861   3.7001   3.7256   3.7395   3.7720   3.7854   3.7915   3.8045
  3.8165   3.8275   3.8449   3.8759   3.8971   3.9217   3.9363   3.9582
  3.9803   3.9892   4.0111   4.0315   4.0508   4.0663   4.1001   4.1068
  4.1218   4.1321   4.1611   4.1854   4.2164   4.2214   4.2316   4.2548
  4.2878   4.2937   4.3108   4.3357   4.3393   4.3792   4.3945   4.4002
  4.4050   4.4223   4.4387   4.4578   4.4697   4.5238   4.5531   4.5884
  4.6052   4.6116   4.6307   4.6707   4.7169   4.7450   4.7494   4.7851
  4.8109   4.8288   4.8735   4.8977   4.9288   4.9557   5.0670   5.1041
  5.1122   5.1420   5.1715   5.1940   5.2218   5.2654   5.2860   5.3253
  5.3721   5.4070   5.4194   5.4433   5.4770   5.5062   5.5538   5.5661
  5.5885   5.6249   5.6456   5.6598   5.6995   5.8191   5.8381   5.8825
  5.9077   6.0409   6.0999   6.1303   6.2273   6.2560   6.3072   6.3747
  6.4787   6.5706   9.1994  11.4376  12.9611  13.8824  14.1700  14.5481
 --------------------------------------------------------------
 
          Ground-State Mulliken Net Atomic Charges

     Atom                 Charge (a.u.)
  ----------------------------------------
      1 C                     0.070038
      2 C                    -0.288874
      3 C                     0.040140
      4 H                     0.176199
      5 C                    -0.269134
      6 S                    -0.002531
      7 C                    -0.275161
      8 H                     0.101219
      9 H                     0.107129
     10 H                     0.107309
     11 C                    -0.383781
     12 H                     0.136100
     13 H                     0.152049
     14 H                     0.136768
     15 H                     0.192531
  ----------------------------------------
  Sum of atomic charges =     0.000000

 -----------------------------------------------------------------
                    Cartesian Multipole Moments
 -----------------------------------------------------------------
    Charge (ESU x 10^10)
                -0.0000
    Dipole Moment (Debye)
         X      -0.5547      Y      -0.4758      Z       1.8689
       Tot       2.0068
    Quadrupole Moments (Debye-Ang)
        XX     -54.1042     XY       1.1611     YY     -42.0180
        XZ       0.2795     YZ      -0.7123     ZZ     -48.6701
    Octopole Moments (Debye-Ang^2)
       XXX       0.5519    XXY     -31.9732    XYY      -1.7205
       YYY     -81.1195    XXZ      -2.0279    XYZ      -1.1373
       YYZ      -1.8998    XZZ       0.1739    YZZ     -25.2977
       ZZZ       0.5390
    Hexadecapole Moments (Debye-Ang^3)
      XXXX     -78.6372   XXXY      -2.6487   XXYY    -161.2032
      XYYY       1.0737   YYYY    -812.4578   XXXZ      -0.4624
      XXYZ     -29.4104   XYYZ       3.6705   YYYZ    -108.3348
      XXZZ    -101.2997   XYZZ      -0.7038   YYZZ    -213.3278
      XZZZ      -0.3126   YZZZ     -99.1711   ZZZZ    -484.1677
 -----------------------------------------------------------------
 Total job time:  157.03s(wall), 155.20s(cpu) 
 Sun Jul 10 09:21:19 2022

        *************************************************************
        *                                                           *
        *  Thank you very much for using Q-Chem.  Have a nice day.  *
        *                                                           *
        *************************************************************


remove work dirs ./qchem2093446.0 -- ./qchem2093446.-1
rm -rf ./qchem2093446
