You are running Q-Chem version: 5.4.0

#
# job setting
#
local host:  exp-14-41
current dir: /expanse/lustre/scratch/theleonzhang/temp_project/Hydrogenated_Impropers_Test
input file:  Methylthiophene_Phi_25_Theta_170_Methylthiophene_Hydrogenated_Improper_Alternate.qcin
output file: 
nprocs     : 0
nthreads   : 1
#
# qchem installation setting
#
QC:          /cm/shared/apps/spack/cpu/opt/spack/linux-centos8-zen2/gcc-10.2.0/qchem-5.4-akfmr7b3t57bfs6qan3padb2wnb2i7cl
QCAUX:       /cm/shared/apps/spack/cpu/opt/spack/linux-centos8-zen2/gcc-10.2.0/qchem-5.4-akfmr7b3t57bfs6qan3padb2wnb2i7cl/qcaux
QCPROG:      /cm/shared/apps/spack/cpu/opt/spack/linux-centos8-zen2/gcc-10.2.0/qchem-5.4-akfmr7b3t57bfs6qan3padb2wnb2i7cl/exe/qcprog.exe_s
QCPROG_S:    /cm/shared/apps/spack/cpu/opt/spack/linux-centos8-zen2/gcc-10.2.0/qchem-5.4-akfmr7b3t57bfs6qan3padb2wnb2i7cl/exe/qcprog.exe_s
PARALLEL:    -DSERIAL
QCMPI:       mpich
#
# qchem directory setting
#
qcrun:       qchem1531658
QCSCRATCH:   .
QCLOCALSCR:  
QCTMPDIR:    .
QCFILEPREF:  ./qchem1531658
QCSAVEDIR:   
workdirs:    ./qchem1531658
workdir0:    ./qchem1531658
partmpdirs =  
#
# parallel setting
#
QCRSH:           ssh
QCMPI:           mpich
QCMPIRUN:        /cm/shared/apps/spack/cpu/opt/spack/linux-centos8-zen2/gcc-10.2.0/qchem-5.4-akfmr7b3t57bfs6qan3padb2wnb2i7cl/bin/mpi/mpirun_qchem
QCMACHINEFILE:   ./qchem1531658/hostfile

#
# env setting
#
exported envs:   QC QCAUX QCSCRATCH QCRUNNAME QCFILEPREF QCPROG QCPROG_S GUIFILE

Running Job 1 of 1 Methylthiophene_Phi_25_Theta_170_Methylthiophene_Hydrogenated_Improper_Alternate.qcin
qchem Methylthiophene_Phi_25_Theta_170_Methylthiophene_Hydrogenated_Improper_Alternate.qcin_1531658.0 ./qchem1531658/ 0
/cm/shared/apps/spack/cpu/opt/spack/linux-centos8-zen2/gcc-10.2.0/qchem-5.4-akfmr7b3t57bfs6qan3padb2wnb2i7cl/exe/qcprog.exe_s Methylthiophene_Phi_25_Theta_170_Methylthiophene_Hydrogenated_Improper_Alternate.qcin_1531658.0 ./qchem1531658/
                  Welcome to Q-Chem
     A Quantum Leap Into The Future Of Chemistry


 Q-Chem 5.4, Q-Chem, Inc., Pleasanton, CA (2021)

 License issued to: University of California, San Diego (site)

 E. Epifanovsky,  A. T. B. Gilbert,  Xintian Feng,  Joonho Lee,  Yuezhi Mao,  
 N. Mardirossian,  P. Pokhilko,  A. White,  M. Wormit,  M. P. Coons,  
 A. L. Dempwolff,  Zhengting Gan,  D. Hait,  P. R. Horn,  L. D. Jacobson,  
 I. Kaliman,  J. Kussmann,  A. W. Lange,  Ka Un Lao,  D. S. Levine,  Jie Liu,  
 S. C. McKenzie,  A. F. Morrison,  K. Nanda,  F. Plasser,  D. R. Rehn,  
 M. L. Vidal,  Zhi-Qiang You,  Ying Zhu,  B. Alam,  B. Albrecht,  
 A. Aldossary,  E. Alguire,  J. H. Andersen,  D. Barton,  K. Begam,  A. Behn,  
 Y. A. Bernard,  E. J. Berquist,  H. Burton,  A. Carreras,  K. Carter-Fenk,  
 R. Chakraborty,  A. D. Chien,  K. D. Closser,  V. Cofer-Shabica,  
 S. Dasgupta,  Jia Deng,  M. de Wergifosse,  M. Diedenhofen,  Hainam Do,  
 S. Ehlert,  Po-Tung Fang,  S. Fatehi,  Qingguo Feng,  J. Gayvert,  
 Qinghui Ge,  G. Gidofalvi,  M. Goldey,  J. Gomes,  C. Gonzalez-Espinoza,  
 S. Gulania,  A. Gunina,  M. W. D. Hanson-Heine,  P. H. P. Harbach,  
 A. W. Hauser,  M. F. Herbst,  M. Hernandez Vera,  M. Hodecker,  
 Z. C. Holden,  S. Houck,  Xunkun Huang,  Kerwin Hui,  B. C. Huynh,  
 M. Ivanov,  Hyunjun Ji,  Hanjie Jiang,  B. Kaduk,  S. Kaehler,  
 K. Khistyaev,  Jaehoon Kim,  P. Klunzinger,  Z. Koczor-Benda,  
 Joong Hoon Koh,  D. Kosenkov,  L. Koulias,  T. Kowalczyk,  C. M. Krauter,  
 K. Kue,  A. Kunitsa,  T. Kus,  A. Landau,  K. V. Lawler,  D. Lefrancois,  
 S. Lehtola,  Rain Li,  Yi-Pei Li,  Jiashu Liang,  M. Liebenthal,  
 Hung-Hsuan Lin,  You-Sheng Lin,  Fenglai Liu,  Kuan-Yu Liu,  
 M. Loipersberger,  A. Luenser,  A. Manjanath,  P. Manohar,  E. Mansoor,  
 S. F. Manzer,  Shan-Ping Mao,  A. V. Marenich,  T. Markovich,  S. Mason,  
 S. A. Maurer,  P. F. McLaughlin,  M. F. S. J. Menger,  J.-M. Mewes,  
 S. A. Mewes,  P. Morgante,  J. W. Mullinax,  T. S. Nguyen-Beck,  
 K. J. Oosterbaan,  G. Paran,  Alexander C. Paul,  Suranjan K. Paul,  
 F. Pavosevic,  Zheng Pei,  S. Prager,  E. I. Proynov,  E. Ramos,  B. Rana,  
 A. E. Rask,  A. Rettig,  R. M. Richard,  F. Rob,  E. Rossomme,  T. Scheele,  
 M. Scheurer,  M. Schneider,  N. Sergueev,  S. M. Sharada,  W. Skomorowski,  
 D. W. Small,  C. J. Stein,  Yu-Chuan Su,  E. J. Sundstrom,  Zhen Tao,  
 J. Thirman,  T. Tsuchimochi,  N. M. Tubman,  S. P. Veccham,  O. Vydrov,  
 J. Wenzel,  J. Witte,  A. Yamada,  Kun Yao,  S. Yeganeh,  S. R. Yost,  
 A. Zech,  Igor Ying Zhang,  Xing Zhang,  Yu Zhang,  D. Zuev,  
 A. Aspuru-Guzik,  A. T. Bell,  N. A. Besley,  K. B. Bravaya,  B. R. Brooks,  
 D. Casanova,  Jeng-Da Chai,  S. Coriani,  C. J. Cramer,  
 A. E. DePrince, III,  R. A. DiStasio Jr.,  A. Dreuw,  B. D. Dunietz,  
 T. R. Furlani,  W. A. Goddard III,  S. Grimme,  S. Hammes-Schiffer,  
 T. Head-Gordon,  W. J. Hehre,  Chao-Ping Hsu,  T.-C. Jagau,  Yousung Jung,  
 A. Klamt,  Jing Kong,  D. S. Lambrecht,  WanZhen Liang,  N. J. Mayhall,  
 C. W. McCurdy,  J. B. Neaton,  C. Ochsenfeld,  J. A. Parkhill,  R. Peverati,  
 V. A. Rassolov,  Yihan Shao,  L. V. Slipchenko,  T. Stauch,  R. P. Steele,  
 J. E. Subotnik,  A. J. W. Thom,  A. Tkatchenko,  D. G. Truhlar,  
 T. Van Voorhis,  T. A. Wesolowski,  K. B. Whaley,  H. L. Woodcock III,  
 P. M. Zimmerman,  S. Faraji,  P. M. W. Gill,  M. Head-Gordon,  
 J. M. Herbert,  A. I. Krylov

 Contributors to earlier versions of Q-Chem not listed above: 
 R. D. Adamson,  B. Austin,  R. Baer,  J. Baker,  G. J. O. Beran,  
 K. Brandhorst,  S. T. Brown,  E. F. C. Byrd,  A. K. Chakraborty,  
 G. K. L. Chan,  Chun-Min Chang,  Yunqing Chen,  C.-L. Cheng,  
 Siu Hung Chien,  D. M. Chipman,  D. L. Crittenden,  H. Dachsel,  
 R. J. Doerksen,  A. D. Dutoi,  R. G. Edgar,  J. Fosso-Tande,  
 L. Fusti-Molnar,  D. Ghosh,  A. Ghysels,  A. Golubeva-Zadorozhnaya,  
 J. Gonthier,  M. S. Gordon,  S. R. Gwaltney,  G. Hawkins,  J. E. Herr,  
 A. Heyden,  S. Hirata,  E. G. Hohenstein,  G. Kedziora,  F. J. Keil,  
 C. Kelley,  Jihan Kim,  R. A. King,  R. Z. Khaliullin,  P. P. Korambath,  
 W. Kurlancheek,  A. Laurent,  A. M. Lee,  M. S. Lee,  S. V. Levchenko,  
 Ching Yeh Lin,  D. Liotard,  E. Livshits,  R. C. Lochan,  I. Lotan,  
 L. A. Martinez-Martinez,  P. E. Maslen,  N. Nair,  D. P. O'Neill,  
 D. Neuhauser,  E. Neuscamman,  C. M. Oana,  R. Olivares-Amaya,  R. Olson,  
 T. M. Perrine,  B. Peters,  P. A. Pieniazek,  A. Prociuk,  Y. M. Rhee,  
 J. Ritchie,  M. A. Rohrdanz,  E. Rosta,  N. J. Russ,  H. F. Schaefer III,  
 M. W. Schmidt,  N. E. Schultz,  S. Sharma,  N. Shenvi,  C. D. Sherrill,  
 A. C. Simmonett,  A. Sodt,  T. Stein,  D. Stuck,  K. S. Thanthiriwatte,  
 V. Vanovschi,  L. Vogt,  Tao Wang,  A. Warshel,  M. A. Watson,  
 C. F. Williams,  Q. Wu,  X. Xu,  Jun Yang,  W. Zhang,  Yan Zhao

 Please cite Q-Chem as follows:
 Y. Shao et al., Mol. Phys. 113, 184-215 (2015)
 DOI: 10.1080/00268976.2014.952696

 Q-Chem 5.4.0 for Intel X86 EM64T Linux

 Parts of Q-Chem use Armadillo 9.800.1 (Horizon Scraper).
 http://arma.sourceforge.net/

 Q-Chem begins on Sun Jul 10 10:46:56 2022  

 Host: 
0

     Scratch files written to ./qchem1531658//
 May1621 |scratch|qcdevops|jenkins|workspace|build_RNUM    
 Processing $rem in /cm/shared/apps/spack/cpu/opt/spack/linux-centos8-zen2/gcc-10.2.0/qchem-5.4-akfmr7b3t57bfs6qan3padb2wnb2i7cl/config/preferences:
 Processing $rem in /home/theleonzhang/.qchemrc:
 Symmetry turned off for PCM/SM12/SMD calculation
 Core orbitals will be frozen

 Checking the input file for inconsistencies... 	...done.

--------------------------------------------------------------
User input:
--------------------------------------------------------------
$molecule
0 1
C	-0.291373	-0.512746	0.016439
C	0.073627	0.269954	1.115839
C	0.658527	1.524154	0.793139
H	-0.082273	-0.064346	2.152539
C	0.751827	1.724154	-0.596061
S	0.106927	0.341354	-1.470361
C	1.118227	2.509954	1.831039
H	0.938327	2.124254	2.853139
H	0.585927	3.480154	1.742639
H	2.203527	2.725854	1.742639
C	-0.291373	-1.953446	0.016439
H	0.772227	-1.953146	-0.170961
H	-0.149173	-2.657246	0.823239
H	-0.455873	-2.472346	-0.916261
H	1.152927	2.584454	-1.145161
$end

$rem
JOBTYPE		SP
EXCHANGE	HF
CORRELATION	pRIMP2
BASIS		cc-pvtz
METHOD		rimp2
AUX_BASIS	rimp2-cc-pvtz
SOLVENT_METHOD	PCM
PURECART	11111
SYMMETRY	false
MEM_TOTAL	110000
SCF_CONVERGENCE = 6
THRESH=10
$end



$solvent
dielectric 4.90
$end
--------------------------------------------------------------
 ----------------------------------------------------------------
             Standard Nuclear Orientation (Angstroms)
    I     Atom           X                Y                Z
 ----------------------------------------------------------------
    1      C      -0.2913730000    -0.5127460000     0.0164390000
    2      C       0.0736270000     0.2699540000     1.1158390000
    3      C       0.6585270000     1.5241540000     0.7931390000
    4      H      -0.0822730000    -0.0643460000     2.1525390000
    5      C       0.7518270000     1.7241540000    -0.5960610000
    6      S       0.1069270000     0.3413540000    -1.4703610000
    7      C       1.1182270000     2.5099540000     1.8310390000
    8      H       0.9383270000     2.1242540000     2.8531390000
    9      H       0.5859270000     3.4801540000     1.7426390000
   10      H       2.2035270000     2.7258540000     1.7426390000
   11      C      -0.2913730000    -1.9534460000     0.0164390000
   12      H       0.7722270000    -1.9531460000    -0.1709610000
   13      H      -0.1491730000    -2.6572460000     0.8232390000
   14      H      -0.4558730000    -2.4723460000    -0.9162610000
   15      H       1.1529270000     2.5844540000    -1.1451610000
 ----------------------------------------------------------------
 Nuclear Repulsion Energy =         345.96479484 hartrees
 There are       30 alpha and       30 beta electrons

 Q-Chem warning in module forms1/BasisType.C, line 2236:

 You are not using the predefined 5D/6D in this basis set.

 Requested basis set is cc-pVTZ
 There are 120 shells and 326 basis functions

 Total QAlloc Memory Limit 110000 MB
 Mega-Array Size       188 MB
 MEM_STATIC part       192 MB
 Discretize the solute cavity surface with Lebedev spheres
	Using 110 Lebedev grid points for each H atom
	Using 194 Lebedev grid points for other atoms
	Atomic van der Waals radii will be scaled by 1.20
 Remove points where switching function is < 1.0e-08
 Keep 1063 surface tesserae and discard 1175 interior tesserae
 Molecular Surface Area = 158.208 Angst**2

                       Distance Matrix (Angstroms)
             C (  1)   C (  2)   C (  3)   H (  4)   C (  5)   S (  6)
   C (  2)  1.398043
   C (  3)  2.377927  1.421007
   H (  4)  2.192649  1.100367  2.218127
   C (  5)  2.543058  2.346328  1.406621  3.383675
   S (  6)  1.760314  2.587400  2.612797  3.650451  1.758531
   C (  7)  3.796901  2.572994  1.503450  2.858598  2.577314  4.077352
   H (  8)  4.063594  2.684091  2.163795  2.514445  3.477333  4.750012
   H (  9)  4.437643  3.310697  2.175490  3.630150  2.929262  4.517176
   H ( 10)  4.437660  3.310709  2.175467  3.630167  2.929224  4.517183
   C ( 11)  1.440700  2.507073  3.687719  2.859256  3.871455  2.763209
   H ( 12)  1.800310  2.661967  3.610268  3.113902  3.701846  2.719521
   H ( 13)  2.295654  2.950213  4.258802  2.914557  4.692854  3.783886
   H ( 14)  2.176470  3.453985  4.487310  3.918619  4.378548  2.922444
   H ( 15)  3.609427  3.410853  2.263995  4.406437  1.096589  2.496271
             C (  7)   H (  8)   H (  9)   H ( 10)   C ( 11)   H ( 12)
   H (  8)  1.107166
   H (  9)  1.110156  1.787697
   H ( 10)  1.110092  1.787698  1.784824
   C ( 11)  5.020128  5.117291  5.768313  5.576750
   H ( 12)  4.903772  5.079169  5.763447  5.253906  1.079983
   H ( 13)  5.414972  5.307155  6.249268  5.946281  1.080038  1.527471
   H ( 14)  5.903284  6.105809  6.602072  6.415874  1.079929  1.527505
   H ( 15)  2.977335  4.030414  3.076224  3.076222  4.901821  4.656588
             H ( 13)   H ( 14)
   H ( 14)  1.775982
   H ( 15)  5.748520  5.311484
 
 Requested basis set is rimp2-cc-pVTZ
 There are 250 shells and 848 basis functions
 A cutoff of  1.0D-10 yielded   6219 shell pairs
 There are     45583 function pairs (     58623 Cartesian)
 Smallest overlap matrix eigenvalue = 1.14E-04

 Scale SEOQF with 1.000000e-01/1.000000e-01/1.000000e-01

 Standard Electronic Orientation quadrupole field applied
 Nucleus-field energy     =     0.0000000015 hartrees
 Guess from superposition of atomic densities
 Warning:  Energy on first SCF cycle will be non-variational
 SAD guess density has 60.000000 electrons

 -----------------------------------------------------------------------
  General SCF calculation program by
  Eric Jon Sundstrom, Paul Horn, Yuezhi Mao, Dmitri Zuev, Alec White,
  David Stuck, Shaama M.S., Shane Yost, Joonho Lee, David Small,
  Daniel Levine, Susi Lehtola, Hugh Burton, Evgeny Epifanovsky,
  Bang C. Huynh
 -----------------------------------------------------------------------
 Hartree-Fock
 A restricted SCF calculation will be
 performed using DIIS
 SCF converges when DIIS error is below 1.0e-06
 ---------------------------------------
  Cycle       Energy         DIIS error
 ---------------------------------------
    1    -632.1177065332      2.92e-02  
    2    -629.3334522962      1.95e-03  
    3    -629.4040593642      7.06e-04  
    4    -629.4118193292      3.62e-04  
    5    -629.4141038675      6.29e-05  
    6    -629.4142391581      2.64e-05  
    7    -629.4142727205      1.15e-05  
    8    -629.4142822406      5.31e-06  
    9    -629.4142838398      1.75e-06  
   10    -629.4142840565      7.06e-07  Convergence criterion met
 ---------------------------------------
 SCF time:   CPU 144.74s  wall 146.00s 

************** Final PCM Free Energy Summary **************
 G_electrostatic  =      -0.00552710 hartree =      -3.46830909 kcal/mol
 G_cavitation     =       0.00000000 hartree =       0.00000000 kcal/mol
 G_dispersion     =       0.00000000 hartree =       0.00000000 kcal/mol
 G_repulsion      =       0.00000000 hartree =       0.00000000 kcal/mol
 --------------------------------------------------
 Non-electrostatic Free Energy =       0.00000000 hartree =       0.00000000 kcal/mol
 Total                         =      -0.00552710 hartree =      -3.46830909 kcal/mol
 --------------------------------------------------
 SCF Energy (H0 + V/2)                       =    -629.41428406 
 Solute Internal Energy (H0)                 =    -629.40875695 
 Total Free Energy (H0 + V/2 + non-elec)     =    -629.41428406 hartree
                                             = -394963.42442812 kcal/mol
***********************************************************

 SCF   energy in the final basis set =     -629.4142840565
 Total energy in the final basis set =     -629.4142840565


 --------------------------------------------------------------
  Generalized many-body perturbation theory program
  by Joonho Lee, Fazle Rob, Xintian Feng, Evgeny Epifanovsky

 No regularization used 
 (reg. param. = 0.0000e+00)
  (P|Q)^-1/2 Time:  CPU 0.48 s  wall 0.49 s

 In RI-MP2 calculation: 
 # of frozen core orbitals: 11

 Components of the RIMP2 correlation energy:
        aaaa    correlation energy =        -0.1454195281 a.u.
        abab    correlation energy =        -0.8865760748 a.u.
        bbbb    correlation energy =        -0.1454195281 a.u.
        non-Brillouin singles      =        -0.0000000000 a.u.
        total same-spin energy     =        -0.2908390562 a.u.
        total opposite-spin energy =        -0.8865760748 a.u.

 Total  RIMP2   correlation energy =        -1.1774151310 a.u.
        RIMP2         total energy =      -630.5916991874 a.u.

 RI-MP2 Energy Time:  CPU 11.12 s  wall 11.15 s
 
 --------------------------------------------------------------
 
                    Orbital Energies (a.u.)
 --------------------------------------------------------------
 
 Alpha MOs
 -- Occupied --
-91.9776 -11.2825 -11.2526 -11.2475 -11.2267 -11.2246 -11.2217  -8.9777
 -6.6587  -6.6581  -6.6575  -1.1631  -1.0569  -0.9962  -0.9421  -0.8816
 -0.7453  -0.7197  -0.6489  -0.5859  -0.5790  -0.5652  -0.5531  -0.5471
 -0.5070  -0.4947  -0.4639  -0.4564  -0.3395  -0.2882
 -- Virtual --
  0.1020   0.1449   0.1520   0.1748   0.1872   0.1956   0.2061   0.2160
  0.2251   0.2455   0.2485   0.2611   0.2943   0.3308   0.3452   0.3502
  0.3794   0.3949   0.3997   0.4241   0.4369   0.4625   0.4662   0.4772
  0.4944   0.4986   0.5186   0.5291   0.5401   0.5622   0.5656   0.5878
  0.5939   0.6047   0.6160   0.6203   0.6297   0.6420   0.6441   0.6470
  0.6566   0.6719   0.6781   0.6936   0.7225   0.7447   0.7678   0.7908
  0.8059   0.8191   0.8333   0.8414   0.8631   0.8908   0.8954   0.9284
  0.9502   0.9697   1.0099   1.0182   1.0347   1.0591   1.0706   1.0768
  1.0812   1.1026   1.1214   1.1323   1.1478   1.1596   1.1743   1.2061
  1.2303   1.2484   1.2566   1.2642   1.2686   1.2945   1.3203   1.3289
  1.3631   1.3735   1.3950   1.4140   1.4330   1.4412   1.4585   1.4697
  1.4838   1.5039   1.5110   1.5236   1.5428   1.5496   1.5519   1.5816
  1.6003   1.6326   1.6355   1.6688   1.6855   1.7015   1.7241   1.7533
  1.7597   1.7871   1.8051   1.8273   1.8903   1.9208   1.9426   1.9691
  2.0204   2.0366   2.1120   2.1265   2.1777   2.1847   2.2321   2.2482
  2.2798   2.2921   2.3296   2.4114   2.4342   2.4644   2.5038   2.5442
  2.5608   2.5936   2.6157   2.6532   2.6722   2.6938   2.7236   2.7441
  2.7521   2.7650   2.7753   2.7983   2.8224   2.8456   2.8750   2.8904
  2.8973   2.9397   2.9642   2.9965   3.0205   3.0351   3.0441   3.0822
  3.0988   3.1116   3.1182   3.1329   3.1529   3.1594   3.1740   3.1801
  3.1932   3.2413   3.2470   3.2779   3.2858   3.2989   3.3143   3.3265
  3.3407   3.3453   3.3812   3.3963   3.4117   3.4165   3.4262   3.4390
  3.4474   3.4709   3.4792   3.4977   3.5177   3.5218   3.5490   3.5525
  3.5736   3.5892   3.6069   3.6193   3.6356   3.6421   3.6558   3.6833
  3.6936   3.7026   3.7294   3.7434   3.7599   3.7606   3.7913   3.8048
  3.8080   3.8404   3.8671   3.8847   3.8907   3.9235   3.9469   3.9660
  3.9822   4.0005   4.0122   4.0392   4.0475   4.0702   4.1010   4.1015
  4.1154   4.1492   4.1700   4.2017   4.2129   4.2354   4.2491   4.2702
  4.2872   4.3058   4.3146   4.3409   4.3497   4.3920   4.3986   4.4040
  4.4100   4.4246   4.4514   4.4660   4.4890   4.5214   4.5379   4.5835
  4.5934   4.6090   4.6497   4.6732   4.7051   4.7301   4.7540   4.7675
  4.7989   4.8235   4.8636   4.8685   4.9006   4.9375   5.0704   5.0916
  5.1168   5.1364   5.1732   5.1903   5.2151   5.2589   5.2902   5.3358
  5.3687   5.4054   5.4092   5.4427   5.4808   5.5363   5.5466   5.5635
  5.5954   5.6085   5.6237   5.6634   5.6979   5.8063   5.8329   5.8531
  5.9318   6.0064   6.0420   6.1490   6.2286   6.2496   6.2810   6.3772
  6.4255   6.5667   9.2036  11.3778  12.8793  13.7425  14.1775  14.5271
 --------------------------------------------------------------
 
          Ground-State Mulliken Net Atomic Charges

     Atom                 Charge (a.u.)
  ----------------------------------------
      1 C                     0.057222
      2 C                    -0.323645
      3 C                     0.064066
      4 H                     0.175547
      5 C                    -0.277943
      6 S                    -0.000061
      7 C                    -0.271243
      8 H                     0.101647
      9 H                     0.107621
     10 H                     0.106800
     11 C                    -0.371244
     12 H                     0.147187
     13 H                     0.159639
     14 H                     0.131348
     15 H                     0.193058
  ----------------------------------------
  Sum of atomic charges =     0.000000

 -----------------------------------------------------------------
                    Cartesian Multipole Moments
 -----------------------------------------------------------------
    Charge (ESU x 10^10)
                -0.0000
    Dipole Moment (Debye)
         X       1.2303      Y      -0.6286      Z       1.3304
       Tot       1.9180
    Quadrupole Moments (Debye-Ang)
        XX     -53.3138     XY       2.0534     YY     -43.4904
        XZ       0.2751     YZ       0.3169     ZZ     -48.5653
    Octopole Moments (Debye-Ang^2)
       XXX     -45.6042    XXY     -23.5835    XYY      -5.7482
       YYY     -75.8182    XXZ      -2.3558    XYZ      -1.5350
       YYZ      -3.4801    XZZ     -13.2525    YZZ     -23.1194
       ZZZ       1.1886
    Hexadecapole Moments (Debye-Ang^3)
      XXXX    -178.2921   XXXY    -120.5104   XXYY    -154.8982
      XYYY    -110.8179   YYYY    -714.7964   XXXZ     -39.5363
      XXYZ     -29.5925   XYYZ     -16.0288   YYYZ     -95.4665
      XXZZ    -115.4449   XYZZ     -32.3983   YYZZ    -195.0291
      XZZZ     -43.3032   YZZZ     -92.3264   ZZZZ    -483.9224
 -----------------------------------------------------------------
 Total job time:  157.75s(wall), 156.21s(cpu) 
 Sun Jul 10 10:49:34 2022

        *************************************************************
        *                                                           *
        *  Thank you very much for using Q-Chem.  Have a nice day.  *
        *                                                           *
        *************************************************************


remove work dirs ./qchem1531658.0 -- ./qchem1531658.-1
rm -rf ./qchem1531658
