You are running Q-Chem version: 5.4.0

#
# job setting
#
local host:  exp-4-01
current dir: /expanse/lustre/scratch/theleonzhang/temp_project/Hydrogenated_Impropers_Test
input file:  Methylthiophene_Phi_50_Theta_190_Methylthiophene_Hydrogenated_Improper_Alternate.qcin
output file: 
nprocs     : 0
nthreads   : 1
#
# qchem installation setting
#
QC:          /cm/shared/apps/spack/cpu/opt/spack/linux-centos8-zen2/gcc-10.2.0/qchem-5.4-akfmr7b3t57bfs6qan3padb2wnb2i7cl
QCAUX:       /cm/shared/apps/spack/cpu/opt/spack/linux-centos8-zen2/gcc-10.2.0/qchem-5.4-akfmr7b3t57bfs6qan3padb2wnb2i7cl/qcaux
QCPROG:      /cm/shared/apps/spack/cpu/opt/spack/linux-centos8-zen2/gcc-10.2.0/qchem-5.4-akfmr7b3t57bfs6qan3padb2wnb2i7cl/exe/qcprog.exe_s
QCPROG_S:    /cm/shared/apps/spack/cpu/opt/spack/linux-centos8-zen2/gcc-10.2.0/qchem-5.4-akfmr7b3t57bfs6qan3padb2wnb2i7cl/exe/qcprog.exe_s
PARALLEL:    -DSERIAL
QCMPI:       mpich
#
# qchem directory setting
#
qcrun:       qchem3977824
QCSCRATCH:   .
QCLOCALSCR:  
QCTMPDIR:    .
QCFILEPREF:  ./qchem3977824
QCSAVEDIR:   
workdirs:    ./qchem3977824
workdir0:    ./qchem3977824
partmpdirs =  
#
# parallel setting
#
QCRSH:           ssh
QCMPI:           mpich
QCMPIRUN:        /cm/shared/apps/spack/cpu/opt/spack/linux-centos8-zen2/gcc-10.2.0/qchem-5.4-akfmr7b3t57bfs6qan3padb2wnb2i7cl/bin/mpi/mpirun_qchem
QCMACHINEFILE:   ./qchem3977824/hostfile

#
# env setting
#
exported envs:   QC QCAUX QCSCRATCH QCRUNNAME QCFILEPREF QCPROG QCPROG_S GUIFILE

Running Job 1 of 1 Methylthiophene_Phi_50_Theta_190_Methylthiophene_Hydrogenated_Improper_Alternate.qcin
qchem Methylthiophene_Phi_50_Theta_190_Methylthiophene_Hydrogenated_Improper_Alternate.qcin_3977824.0 ./qchem3977824/ 0
/cm/shared/apps/spack/cpu/opt/spack/linux-centos8-zen2/gcc-10.2.0/qchem-5.4-akfmr7b3t57bfs6qan3padb2wnb2i7cl/exe/qcprog.exe_s Methylthiophene_Phi_50_Theta_190_Methylthiophene_Hydrogenated_Improper_Alternate.qcin_3977824.0 ./qchem3977824/
                  Welcome to Q-Chem
     A Quantum Leap Into The Future Of Chemistry


 Q-Chem 5.4, Q-Chem, Inc., Pleasanton, CA (2021)

 License issued to: University of California, San Diego (site)

 E. Epifanovsky,  A. T. B. Gilbert,  Xintian Feng,  Joonho Lee,  Yuezhi Mao,  
 N. Mardirossian,  P. Pokhilko,  A. White,  M. Wormit,  M. P. Coons,  
 A. L. Dempwolff,  Zhengting Gan,  D. Hait,  P. R. Horn,  L. D. Jacobson,  
 I. Kaliman,  J. Kussmann,  A. W. Lange,  Ka Un Lao,  D. S. Levine,  Jie Liu,  
 S. C. McKenzie,  A. F. Morrison,  K. Nanda,  F. Plasser,  D. R. Rehn,  
 M. L. Vidal,  Zhi-Qiang You,  Ying Zhu,  B. Alam,  B. Albrecht,  
 A. Aldossary,  E. Alguire,  J. H. Andersen,  D. Barton,  K. Begam,  A. Behn,  
 Y. A. Bernard,  E. J. Berquist,  H. Burton,  A. Carreras,  K. Carter-Fenk,  
 R. Chakraborty,  A. D. Chien,  K. D. Closser,  V. Cofer-Shabica,  
 S. Dasgupta,  Jia Deng,  M. de Wergifosse,  M. Diedenhofen,  Hainam Do,  
 S. Ehlert,  Po-Tung Fang,  S. Fatehi,  Qingguo Feng,  J. Gayvert,  
 Qinghui Ge,  G. Gidofalvi,  M. Goldey,  J. Gomes,  C. Gonzalez-Espinoza,  
 S. Gulania,  A. Gunina,  M. W. D. Hanson-Heine,  P. H. P. Harbach,  
 A. W. Hauser,  M. F. Herbst,  M. Hernandez Vera,  M. Hodecker,  
 Z. C. Holden,  S. Houck,  Xunkun Huang,  Kerwin Hui,  B. C. Huynh,  
 M. Ivanov,  Hyunjun Ji,  Hanjie Jiang,  B. Kaduk,  S. Kaehler,  
 K. Khistyaev,  Jaehoon Kim,  P. Klunzinger,  Z. Koczor-Benda,  
 Joong Hoon Koh,  D. Kosenkov,  L. Koulias,  T. Kowalczyk,  C. M. Krauter,  
 K. Kue,  A. Kunitsa,  T. Kus,  A. Landau,  K. V. Lawler,  D. Lefrancois,  
 S. Lehtola,  Rain Li,  Yi-Pei Li,  Jiashu Liang,  M. Liebenthal,  
 Hung-Hsuan Lin,  You-Sheng Lin,  Fenglai Liu,  Kuan-Yu Liu,  
 M. Loipersberger,  A. Luenser,  A. Manjanath,  P. Manohar,  E. Mansoor,  
 S. F. Manzer,  Shan-Ping Mao,  A. V. Marenich,  T. Markovich,  S. Mason,  
 S. A. Maurer,  P. F. McLaughlin,  M. F. S. J. Menger,  J.-M. Mewes,  
 S. A. Mewes,  P. Morgante,  J. W. Mullinax,  T. S. Nguyen-Beck,  
 K. J. Oosterbaan,  G. Paran,  Alexander C. Paul,  Suranjan K. Paul,  
 F. Pavosevic,  Zheng Pei,  S. Prager,  E. I. Proynov,  E. Ramos,  B. Rana,  
 A. E. Rask,  A. Rettig,  R. M. Richard,  F. Rob,  E. Rossomme,  T. Scheele,  
 M. Scheurer,  M. Schneider,  N. Sergueev,  S. M. Sharada,  W. Skomorowski,  
 D. W. Small,  C. J. Stein,  Yu-Chuan Su,  E. J. Sundstrom,  Zhen Tao,  
 J. Thirman,  T. Tsuchimochi,  N. M. Tubman,  S. P. Veccham,  O. Vydrov,  
 J. Wenzel,  J. Witte,  A. Yamada,  Kun Yao,  S. Yeganeh,  S. R. Yost,  
 A. Zech,  Igor Ying Zhang,  Xing Zhang,  Yu Zhang,  D. Zuev,  
 A. Aspuru-Guzik,  A. T. Bell,  N. A. Besley,  K. B. Bravaya,  B. R. Brooks,  
 D. Casanova,  Jeng-Da Chai,  S. Coriani,  C. J. Cramer,  
 A. E. DePrince, III,  R. A. DiStasio Jr.,  A. Dreuw,  B. D. Dunietz,  
 T. R. Furlani,  W. A. Goddard III,  S. Grimme,  S. Hammes-Schiffer,  
 T. Head-Gordon,  W. J. Hehre,  Chao-Ping Hsu,  T.-C. Jagau,  Yousung Jung,  
 A. Klamt,  Jing Kong,  D. S. Lambrecht,  WanZhen Liang,  N. J. Mayhall,  
 C. W. McCurdy,  J. B. Neaton,  C. Ochsenfeld,  J. A. Parkhill,  R. Peverati,  
 V. A. Rassolov,  Yihan Shao,  L. V. Slipchenko,  T. Stauch,  R. P. Steele,  
 J. E. Subotnik,  A. J. W. Thom,  A. Tkatchenko,  D. G. Truhlar,  
 T. Van Voorhis,  T. A. Wesolowski,  K. B. Whaley,  H. L. Woodcock III,  
 P. M. Zimmerman,  S. Faraji,  P. M. W. Gill,  M. Head-Gordon,  
 J. M. Herbert,  A. I. Krylov

 Contributors to earlier versions of Q-Chem not listed above: 
 R. D. Adamson,  B. Austin,  R. Baer,  J. Baker,  G. J. O. Beran,  
 K. Brandhorst,  S. T. Brown,  E. F. C. Byrd,  A. K. Chakraborty,  
 G. K. L. Chan,  Chun-Min Chang,  Yunqing Chen,  C.-L. Cheng,  
 Siu Hung Chien,  D. M. Chipman,  D. L. Crittenden,  H. Dachsel,  
 R. J. Doerksen,  A. D. Dutoi,  R. G. Edgar,  J. Fosso-Tande,  
 L. Fusti-Molnar,  D. Ghosh,  A. Ghysels,  A. Golubeva-Zadorozhnaya,  
 J. Gonthier,  M. S. Gordon,  S. R. Gwaltney,  G. Hawkins,  J. E. Herr,  
 A. Heyden,  S. Hirata,  E. G. Hohenstein,  G. Kedziora,  F. J. Keil,  
 C. Kelley,  Jihan Kim,  R. A. King,  R. Z. Khaliullin,  P. P. Korambath,  
 W. Kurlancheek,  A. Laurent,  A. M. Lee,  M. S. Lee,  S. V. Levchenko,  
 Ching Yeh Lin,  D. Liotard,  E. Livshits,  R. C. Lochan,  I. Lotan,  
 L. A. Martinez-Martinez,  P. E. Maslen,  N. Nair,  D. P. O'Neill,  
 D. Neuhauser,  E. Neuscamman,  C. M. Oana,  R. Olivares-Amaya,  R. Olson,  
 T. M. Perrine,  B. Peters,  P. A. Pieniazek,  A. Prociuk,  Y. M. Rhee,  
 J. Ritchie,  M. A. Rohrdanz,  E. Rosta,  N. J. Russ,  H. F. Schaefer III,  
 M. W. Schmidt,  N. E. Schultz,  S. Sharma,  N. Shenvi,  C. D. Sherrill,  
 A. C. Simmonett,  A. Sodt,  T. Stein,  D. Stuck,  K. S. Thanthiriwatte,  
 V. Vanovschi,  L. Vogt,  Tao Wang,  A. Warshel,  M. A. Watson,  
 C. F. Williams,  Q. Wu,  X. Xu,  Jun Yang,  W. Zhang,  Yan Zhao

 Please cite Q-Chem as follows:
 Y. Shao et al., Mol. Phys. 113, 184-215 (2015)
 DOI: 10.1080/00268976.2014.952696

 Q-Chem 5.4.0 for Intel X86 EM64T Linux

 Parts of Q-Chem use Armadillo 9.800.1 (Horizon Scraper).
 http://arma.sourceforge.net/

 Q-Chem begins on Sun Jul 10 10:24:15 2022  

 Host: 
0

     Scratch files written to ./qchem3977824//
 May1621 |scratch|qcdevops|jenkins|workspace|build_RNUM    
 Processing $rem in /cm/shared/apps/spack/cpu/opt/spack/linux-centos8-zen2/gcc-10.2.0/qchem-5.4-akfmr7b3t57bfs6qan3padb2wnb2i7cl/config/preferences:
 Processing $rem in /home/theleonzhang/.qchemrc:
 Symmetry turned off for PCM/SM12/SMD calculation
 Core orbitals will be frozen

 Checking the input file for inconsistencies... 	...done.

--------------------------------------------------------------
User input:
--------------------------------------------------------------
$molecule
0 1
C	-0.524521	-0.333974	0.014755
C	0.137079	0.221126	1.114155
C	1.197179	1.110626	0.791455
H	-0.145421	-0.015974	2.150855
C	1.366279	1.252426	-0.597745
S	0.197379	0.271726	-1.472045
C	2.030479	1.809826	1.829355
H	1.704379	1.536226	2.851455
H	1.958079	2.914026	1.740955
H	3.105279	1.546726	1.740955
C	-0.524521	-1.774674	0.014755
H	0.539079	-1.774374	0.202455
H	-0.666821	-2.478474	0.821455
H	-0.360021	-2.293574	-0.917945
H	2.093379	1.862626	-1.146845
$end

$rem
JOBTYPE		SP
EXCHANGE	HF
CORRELATION	pRIMP2
BASIS		cc-pvtz
METHOD		rimp2
AUX_BASIS	rimp2-cc-pvtz
SOLVENT_METHOD	PCM
PURECART	11111
SYMMETRY	false
MEM_TOTAL	110000
SCF_CONVERGENCE = 6
THRESH=10
$end



$solvent
dielectric 4.90
$end
--------------------------------------------------------------
 ----------------------------------------------------------------
             Standard Nuclear Orientation (Angstroms)
    I     Atom           X                Y                Z
 ----------------------------------------------------------------
    1      C      -0.5245210000    -0.3339740000     0.0147550000
    2      C       0.1370790000     0.2211260000     1.1141550000
    3      C       1.1971790000     1.1106260000     0.7914550000
    4      H      -0.1454210000    -0.0159740000     2.1508550000
    5      C       1.3662790000     1.2524260000    -0.5977450000
    6      S       0.1973790000     0.2717260000    -1.4720450000
    7      C       2.0304790000     1.8098260000     1.8293550000
    8      H       1.7043790000     1.5362260000     2.8514550000
    9      H       1.9580790000     2.9140260000     1.7409550000
   10      H       3.1052790000     1.5467260000     1.7409550000
   11      C      -0.5245210000    -1.7746740000     0.0147550000
   12      H       0.5390790000    -1.7743740000     0.2024550000
   13      H      -0.6668210000    -2.4784740000     0.8214550000
   14      H      -0.3600210000    -2.2935740000    -0.9179450000
   15      H       2.0933790000     1.8626260000    -1.1468450000
 ----------------------------------------------------------------
 Nuclear Repulsion Energy =         349.90712836 hartrees
 There are       30 alpha and       30 beta electrons

 Q-Chem warning in module forms1/BasisType.C, line 2236:

 You are not using the predefined 5D/6D in this basis set.

 Requested basis set is cc-pVTZ
 There are 120 shells and 326 basis functions

 Total QAlloc Memory Limit 110000 MB
 Mega-Array Size       188 MB
 MEM_STATIC part       192 MB
 Discretize the solute cavity surface with Lebedev spheres
	Using 110 Lebedev grid points for each H atom
	Using 194 Lebedev grid points for other atoms
	Atomic van der Waals radii will be scaled by 1.20
 Remove points where switching function is < 1.0e-08
 Keep 1040 surface tesserae and discard 1198 interior tesserae
 Molecular Surface Area = 156.320 Angst**2

                       Distance Matrix (Angstroms)
             C (  1)   C (  2)   C (  3)   H (  4)   C (  5)   S (  6)
   C (  2)  1.398045
   C (  3)  2.377895  1.420971
   H (  4)  2.192661  1.100350  2.218056
   C (  5)  2.543019  2.346298  1.406620  3.383619
   S (  6)  1.760280  2.587398  2.612812  3.650437  1.758551
   C (  7)  3.796930  2.573022  1.503498  2.858575  2.577338  4.077407
   H (  8)  4.063559  2.684051  2.163790  2.514344  3.477332  4.750017
   H (  9)  4.437631  3.310684  2.175493  3.630101  2.929276  4.517210
   H ( 10)  4.437595  3.310635  2.175449  3.630028  2.929207  4.517176
   C ( 11)  1.440700  2.372680  3.448546  2.792788  3.621273  2.630488
   H ( 12)  1.800341  2.230431  3.017158  2.712337  3.238225  2.665940
   H ( 13)  2.295625  2.831920  4.044383  2.846589  4.479647  3.683827
   H ( 14)  2.176470  3.271124  4.115276  3.827669  3.956862  2.682999
   H ( 15)  3.609400  3.410829  2.263998  4.406380  1.096599  2.496304
             C (  7)   H (  8)   H (  9)   H ( 10)   C ( 11)   H ( 12)
   H (  8)  1.107198
   H (  9)  1.110096  1.787710
   H ( 10)  1.110059  1.787692  1.784819
   C ( 11)  4.761243  4.896623  5.579156  5.214107
   H ( 12)  4.209224  4.397181  5.134359  4.470131  1.080035
   H ( 13)  5.165347  5.085401  6.067507  5.592536  1.079976  1.527453
   H ( 14)  5.486350  5.756517  6.289868  5.816009  1.079929  1.527497
   H ( 15)  2.977333  4.030417  3.076221  3.076219  4.629543  4.179022
             H ( 13)   H ( 14)
   H ( 14)  1.775902
   H ( 15)  5.507999  4.831725
 
 Requested basis set is rimp2-cc-pVTZ
 There are 250 shells and 848 basis functions
 A cutoff of  1.0D-10 yielded   6359 shell pairs
 There are     46675 function pairs (     59985 Cartesian)
 Smallest overlap matrix eigenvalue = 1.30E-04

 Scale SEOQF with 1.000000e-01/1.000000e-01/1.000000e-01

 Standard Electronic Orientation quadrupole field applied
 Nucleus-field energy     =    -0.0000000008 hartrees
 Guess from superposition of atomic densities
 Warning:  Energy on first SCF cycle will be non-variational
 SAD guess density has 60.000000 electrons

 -----------------------------------------------------------------------
  General SCF calculation program by
  Eric Jon Sundstrom, Paul Horn, Yuezhi Mao, Dmitri Zuev, Alec White,
  David Stuck, Shaama M.S., Shane Yost, Joonho Lee, David Small,
  Daniel Levine, Susi Lehtola, Hugh Burton, Evgeny Epifanovsky,
  Bang C. Huynh
 -----------------------------------------------------------------------
 Hartree-Fock
 A restricted SCF calculation will be
 performed using DIIS
 SCF converges when DIIS error is below 1.0e-06
 ---------------------------------------
  Cycle       Energy         DIIS error
 ---------------------------------------
    1    -632.1924718772      2.95e-02  
    2    -629.2909027814      1.93e-03  
    3    -629.3617899652      6.59e-04  
    4    -629.3692556017      3.26e-04  
    5    -629.3711981325      6.29e-05  
    6    -629.3713406233      2.57e-05  
    7    -629.3713789872      1.23e-05  
    8    -629.3713908433      4.61e-06  
    9    -629.3713927023      2.28e-06  
   10    -629.3713929436      7.12e-07  Convergence criterion met
 ---------------------------------------
 SCF time:   CPU 150.03s  wall 151.00s 

************** Final PCM Free Energy Summary **************
 G_electrostatic  =      -0.00547884 hartree =      -3.43802339 kcal/mol
 G_cavitation     =       0.00000000 hartree =       0.00000000 kcal/mol
 G_dispersion     =       0.00000000 hartree =       0.00000000 kcal/mol
 G_repulsion      =       0.00000000 hartree =       0.00000000 kcal/mol
 --------------------------------------------------
 Non-electrostatic Free Energy =       0.00000000 hartree =       0.00000000 kcal/mol
 Total                         =      -0.00547884 hartree =      -3.43802339 kcal/mol
 --------------------------------------------------
 SCF Energy (H0 + V/2)                       =    -629.37139294 
 Solute Internal Energy (H0)                 =    -629.36591410 
 Total Free Energy (H0 + V/2 + non-elec)     =    -629.37139294 hartree
                                             = -394936.50984859 kcal/mol
***********************************************************

 SCF   energy in the final basis set =     -629.3713929436
 Total energy in the final basis set =     -629.3713929436


 --------------------------------------------------------------
  Generalized many-body perturbation theory program
  by Joonho Lee, Fazle Rob, Xintian Feng, Evgeny Epifanovsky

 No regularization used 
 (reg. param. = 0.0000e+00)
  (P|Q)^-1/2 Time:  CPU 0.48 s  wall 0.48 s

 In RI-MP2 calculation: 
 # of frozen core orbitals: 11

 Components of the RIMP2 correlation energy:
        aaaa    correlation energy =        -0.1473506814 a.u.
        abab    correlation energy =        -0.8933177563 a.u.
        bbbb    correlation energy =        -0.1473506814 a.u.
        non-Brillouin singles      =        -0.0000000000 a.u.
        total same-spin energy     =        -0.2947013629 a.u.
        total opposite-spin energy =        -0.8933177563 a.u.

 Total  RIMP2   correlation energy =        -1.1880191192 a.u.
        RIMP2         total energy =      -630.5594120628 a.u.

 RI-MP2 Energy Time:  CPU 11.21 s  wall 11.25 s
 
 --------------------------------------------------------------
 
                    Orbital Energies (a.u.)
 --------------------------------------------------------------
 
 Alpha MOs
 -- Occupied --
-91.9781 -11.2676 -11.2675 -11.2499 -11.2345 -11.2283 -11.2158  -8.9784
 -6.6593  -6.6586  -6.6582  -1.1722  -1.0579  -0.9978  -0.9380  -0.8811
 -0.7485  -0.7259  -0.6468  -0.5896  -0.5796  -0.5668  -0.5544  -0.5459
 -0.5090  -0.4903  -0.4605  -0.4495  -0.3373  -0.2869
 -- Virtual --
  0.0754   0.1429   0.1588   0.1749   0.1836   0.1921   0.2063   0.2234
  0.2261   0.2414   0.2469   0.2564   0.2962   0.3193   0.3329   0.3502
  0.3691   0.3940   0.3953   0.4171   0.4471   0.4494   0.4631   0.4671
  0.4819   0.4943   0.5197   0.5311   0.5442   0.5502   0.5751   0.5817
  0.5841   0.6066   0.6081   0.6133   0.6298   0.6353   0.6376   0.6435
  0.6578   0.6638   0.6850   0.7020   0.7197   0.7512   0.7698   0.7720
  0.7947   0.7960   0.8362   0.8497   0.8589   0.8860   0.9020   0.9167
  0.9447   0.9796   1.0149   1.0404   1.0481   1.0594   1.0730   1.0869
  1.0932   1.1150   1.1387   1.1500   1.1612   1.1717   1.1931   1.2005
  1.2246   1.2474   1.2560   1.2589   1.2767   1.3071   1.3142   1.3395
  1.3516   1.3578   1.3943   1.4126   1.4247   1.4311   1.4616   1.4743
  1.4816   1.4986   1.5108   1.5300   1.5445   1.5520   1.5572   1.5629
  1.6165   1.6253   1.6468   1.6647   1.6744   1.6977   1.7156   1.7446
  1.7833   1.7866   1.8132   1.8245   1.8827   1.9082   1.9264   1.9782
  1.9828   2.0339   2.0555   2.1490   2.1650   2.1962   2.2164   2.2338
  2.2655   2.2787   2.3553   2.4009   2.4118   2.4756   2.4946   2.5357
  2.5744   2.5852   2.6478   2.6614   2.6767   2.6864   2.7170   2.7367
  2.7658   2.7715   2.7859   2.8117   2.8341   2.8483   2.8527   2.8882
  2.9152   2.9604   2.9720   2.9917   3.0170   3.0362   3.0448   3.0743
  3.1008   3.1117   3.1254   3.1388   3.1502   3.1649   3.1723   3.1823
  3.2225   3.2321   3.2423   3.2496   3.2837   3.2939   3.3140   3.3278
  3.3404   3.3616   3.3645   3.3765   3.3992   3.4093   3.4241   3.4415
  3.4458   3.4737   3.4852   3.4975   3.5193   3.5278   3.5430   3.5591
  3.5673   3.5902   3.6077   3.6224   3.6306   3.6621   3.6698   3.6946
  3.7079   3.7215   3.7340   3.7466   3.7585   3.7814   3.7943   3.8040
  3.8253   3.8388   3.8653   3.9085   3.9176   3.9461   3.9530   3.9748
  3.9872   4.0256   4.0307   4.0409   4.0558   4.0866   4.1044   4.1220
  4.1345   4.1621   4.1887   4.2024   4.2163   4.2280   4.2500   4.2729
  4.2923   4.3148   4.3253   4.3360   4.3632   4.3784   4.4012   4.4031
  4.4106   4.4576   4.4655   4.4829   4.5002   4.5271   4.5732   4.5884
  4.6038   4.6221   4.6476   4.6673   4.6977   4.7238   4.7623   4.7971
  4.8248   4.8562   4.8645   4.8830   4.9238   4.9390   5.0384   5.0951
  5.1139   5.1365   5.1746   5.1987   5.2249   5.2656   5.2960   5.3251
  5.3725   5.3997   5.4259   5.4433   5.4536   5.5212   5.5470   5.5515
  5.5931   5.6215   5.6258   5.6910   5.6997   5.8109   5.8377   5.8753
  5.8985   5.9784   6.0096   6.1143   6.2156   6.2292   6.2547   6.3411
  6.4313   6.4851   9.3007  11.7968  12.8116  13.6971  14.1737  14.3806
 --------------------------------------------------------------
 
          Ground-State Mulliken Net Atomic Charges

     Atom                 Charge (a.u.)
  ----------------------------------------
      1 C                    -0.035920
      2 C                    -0.202327
      3 C                     0.013330
      4 H                     0.177078
      5 C                    -0.238177
      6 S                     0.016781
      7 C                    -0.268444
      8 H                     0.102266
      9 H                     0.107509
     10 H                     0.104752
     11 C                    -0.369914
     12 H                     0.130248
     13 H                     0.139885
     14 H                     0.126919
     15 H                     0.196014
  ----------------------------------------
  Sum of atomic charges =     0.000000

 -----------------------------------------------------------------
                    Cartesian Multipole Moments
 -----------------------------------------------------------------
    Charge (ESU x 10^10)
                -0.0000
    Dipole Moment (Debye)
         X       2.0998      Y      -0.2559      Z       1.6133
       Tot       2.6603
    Quadrupole Moments (Debye-Ang)
        XX     -50.3390     XY       3.7927     YY     -47.9899
        XZ      -0.0977     YZ      -0.3899     ZZ     -47.9477
    Octopole Moments (Debye-Ang^2)
       XXX     -73.8259    XXY      -7.5516    XYY     -19.0031
       YYY     -50.9548    XXZ      -3.8215    XYZ      -1.2826
       YYZ      -2.1856    XZZ     -23.7022    YZZ     -14.7554
       ZZZ       1.4313
    Hexadecapole Moments (Debye-Ang^3)
      XXXX    -398.6185   XXXY    -152.1228   XXYY    -143.7968
      XYYY    -156.7880   YYYY    -481.0910   XXXZ     -75.5070
      XXYZ     -25.2951   XYYZ     -29.2435   YYYZ     -65.9569
      XXZZ    -145.5925   XYZZ     -44.3929   YYZZ    -158.7600
      XZZZ     -78.0289   YZZZ     -63.9058   ZZZZ    -480.4743
 -----------------------------------------------------------------
 Total job time:  163.15s(wall), 161.60s(cpu) 
 Sun Jul 10 10:26:58 2022

        *************************************************************
        *                                                           *
        *  Thank you very much for using Q-Chem.  Have a nice day.  *
        *                                                           *
        *************************************************************


remove work dirs ./qchem3977824.0 -- ./qchem3977824.-1
rm -rf ./qchem3977824
