You are running Q-Chem version: 5.4.0

#
# job setting
#
local host:  exp-1-06
current dir: /expanse/lustre/scratch/theleonzhang/temp_project/Hydrogenated_Impropers_Test
input file:  Methylthiophene_Phi_0_Theta_270_Methylthiophene_Hydrogenated_Improper_Alternate.qcin
output file: 
nprocs     : 0
nthreads   : 1
#
# qchem installation setting
#
QC:          /cm/shared/apps/spack/cpu/opt/spack/linux-centos8-zen2/gcc-10.2.0/qchem-5.4-akfmr7b3t57bfs6qan3padb2wnb2i7cl
QCAUX:       /cm/shared/apps/spack/cpu/opt/spack/linux-centos8-zen2/gcc-10.2.0/qchem-5.4-akfmr7b3t57bfs6qan3padb2wnb2i7cl/qcaux
QCPROG:      /cm/shared/apps/spack/cpu/opt/spack/linux-centos8-zen2/gcc-10.2.0/qchem-5.4-akfmr7b3t57bfs6qan3padb2wnb2i7cl/exe/qcprog.exe_s
QCPROG_S:    /cm/shared/apps/spack/cpu/opt/spack/linux-centos8-zen2/gcc-10.2.0/qchem-5.4-akfmr7b3t57bfs6qan3padb2wnb2i7cl/exe/qcprog.exe_s
PARALLEL:    -DSERIAL
QCMPI:       mpich
#
# qchem directory setting
#
qcrun:       qchem1903677
QCSCRATCH:   .
QCLOCALSCR:  
QCTMPDIR:    .
QCFILEPREF:  ./qchem1903677
QCSAVEDIR:   
workdirs:    ./qchem1903677
workdir0:    ./qchem1903677
partmpdirs =  
#
# parallel setting
#
QCRSH:           ssh
QCMPI:           mpich
QCMPIRUN:        /cm/shared/apps/spack/cpu/opt/spack/linux-centos8-zen2/gcc-10.2.0/qchem-5.4-akfmr7b3t57bfs6qan3padb2wnb2i7cl/bin/mpi/mpirun_qchem
QCMACHINEFILE:   ./qchem1903677/hostfile

#
# env setting
#
exported envs:   QC QCAUX QCSCRATCH QCRUNNAME QCFILEPREF QCPROG QCPROG_S GUIFILE

Running Job 1 of 1 Methylthiophene_Phi_0_Theta_270_Methylthiophene_Hydrogenated_Improper_Alternate.qcin
qchem Methylthiophene_Phi_0_Theta_270_Methylthiophene_Hydrogenated_Improper_Alternate.qcin_1903677.0 ./qchem1903677/ 0
/cm/shared/apps/spack/cpu/opt/spack/linux-centos8-zen2/gcc-10.2.0/qchem-5.4-akfmr7b3t57bfs6qan3padb2wnb2i7cl/exe/qcprog.exe_s Methylthiophene_Phi_0_Theta_270_Methylthiophene_Hydrogenated_Improper_Alternate.qcin_1903677.0 ./qchem1903677/
                  Welcome to Q-Chem
     A Quantum Leap Into The Future Of Chemistry


 Q-Chem 5.4, Q-Chem, Inc., Pleasanton, CA (2021)

 License issued to: University of California, San Diego (site)

 E. Epifanovsky,  A. T. B. Gilbert,  Xintian Feng,  Joonho Lee,  Yuezhi Mao,  
 N. Mardirossian,  P. Pokhilko,  A. White,  M. Wormit,  M. P. Coons,  
 A. L. Dempwolff,  Zhengting Gan,  D. Hait,  P. R. Horn,  L. D. Jacobson,  
 I. Kaliman,  J. Kussmann,  A. W. Lange,  Ka Un Lao,  D. S. Levine,  Jie Liu,  
 S. C. McKenzie,  A. F. Morrison,  K. Nanda,  F. Plasser,  D. R. Rehn,  
 M. L. Vidal,  Zhi-Qiang You,  Ying Zhu,  B. Alam,  B. Albrecht,  
 A. Aldossary,  E. Alguire,  J. H. Andersen,  D. Barton,  K. Begam,  A. Behn,  
 Y. A. Bernard,  E. J. Berquist,  H. Burton,  A. Carreras,  K. Carter-Fenk,  
 R. Chakraborty,  A. D. Chien,  K. D. Closser,  V. Cofer-Shabica,  
 S. Dasgupta,  Jia Deng,  M. de Wergifosse,  M. Diedenhofen,  Hainam Do,  
 S. Ehlert,  Po-Tung Fang,  S. Fatehi,  Qingguo Feng,  J. Gayvert,  
 Qinghui Ge,  G. Gidofalvi,  M. Goldey,  J. Gomes,  C. Gonzalez-Espinoza,  
 S. Gulania,  A. Gunina,  M. W. D. Hanson-Heine,  P. H. P. Harbach,  
 A. W. Hauser,  M. F. Herbst,  M. Hernandez Vera,  M. Hodecker,  
 Z. C. Holden,  S. Houck,  Xunkun Huang,  Kerwin Hui,  B. C. Huynh,  
 M. Ivanov,  Hyunjun Ji,  Hanjie Jiang,  B. Kaduk,  S. Kaehler,  
 K. Khistyaev,  Jaehoon Kim,  P. Klunzinger,  Z. Koczor-Benda,  
 Joong Hoon Koh,  D. Kosenkov,  L. Koulias,  T. Kowalczyk,  C. M. Krauter,  
 K. Kue,  A. Kunitsa,  T. Kus,  A. Landau,  K. V. Lawler,  D. Lefrancois,  
 S. Lehtola,  Rain Li,  Yi-Pei Li,  Jiashu Liang,  M. Liebenthal,  
 Hung-Hsuan Lin,  You-Sheng Lin,  Fenglai Liu,  Kuan-Yu Liu,  
 M. Loipersberger,  A. Luenser,  A. Manjanath,  P. Manohar,  E. Mansoor,  
 S. F. Manzer,  Shan-Ping Mao,  A. V. Marenich,  T. Markovich,  S. Mason,  
 S. A. Maurer,  P. F. McLaughlin,  M. F. S. J. Menger,  J.-M. Mewes,  
 S. A. Mewes,  P. Morgante,  J. W. Mullinax,  T. S. Nguyen-Beck,  
 K. J. Oosterbaan,  G. Paran,  Alexander C. Paul,  Suranjan K. Paul,  
 F. Pavosevic,  Zheng Pei,  S. Prager,  E. I. Proynov,  E. Ramos,  B. Rana,  
 A. E. Rask,  A. Rettig,  R. M. Richard,  F. Rob,  E. Rossomme,  T. Scheele,  
 M. Scheurer,  M. Schneider,  N. Sergueev,  S. M. Sharada,  W. Skomorowski,  
 D. W. Small,  C. J. Stein,  Yu-Chuan Su,  E. J. Sundstrom,  Zhen Tao,  
 J. Thirman,  T. Tsuchimochi,  N. M. Tubman,  S. P. Veccham,  O. Vydrov,  
 J. Wenzel,  J. Witte,  A. Yamada,  Kun Yao,  S. Yeganeh,  S. R. Yost,  
 A. Zech,  Igor Ying Zhang,  Xing Zhang,  Yu Zhang,  D. Zuev,  
 A. Aspuru-Guzik,  A. T. Bell,  N. A. Besley,  K. B. Bravaya,  B. R. Brooks,  
 D. Casanova,  Jeng-Da Chai,  S. Coriani,  C. J. Cramer,  
 A. E. DePrince, III,  R. A. DiStasio Jr.,  A. Dreuw,  B. D. Dunietz,  
 T. R. Furlani,  W. A. Goddard III,  S. Grimme,  S. Hammes-Schiffer,  
 T. Head-Gordon,  W. J. Hehre,  Chao-Ping Hsu,  T.-C. Jagau,  Yousung Jung,  
 A. Klamt,  Jing Kong,  D. S. Lambrecht,  WanZhen Liang,  N. J. Mayhall,  
 C. W. McCurdy,  J. B. Neaton,  C. Ochsenfeld,  J. A. Parkhill,  R. Peverati,  
 V. A. Rassolov,  Yihan Shao,  L. V. Slipchenko,  T. Stauch,  R. P. Steele,  
 J. E. Subotnik,  A. J. W. Thom,  A. Tkatchenko,  D. G. Truhlar,  
 T. Van Voorhis,  T. A. Wesolowski,  K. B. Whaley,  H. L. Woodcock III,  
 P. M. Zimmerman,  S. Faraji,  P. M. W. Gill,  M. Head-Gordon,  
 J. M. Herbert,  A. I. Krylov

 Contributors to earlier versions of Q-Chem not listed above: 
 R. D. Adamson,  B. Austin,  R. Baer,  J. Baker,  G. J. O. Beran,  
 K. Brandhorst,  S. T. Brown,  E. F. C. Byrd,  A. K. Chakraborty,  
 G. K. L. Chan,  Chun-Min Chang,  Yunqing Chen,  C.-L. Cheng,  
 Siu Hung Chien,  D. M. Chipman,  D. L. Crittenden,  H. Dachsel,  
 R. J. Doerksen,  A. D. Dutoi,  R. G. Edgar,  J. Fosso-Tande,  
 L. Fusti-Molnar,  D. Ghosh,  A. Ghysels,  A. Golubeva-Zadorozhnaya,  
 J. Gonthier,  M. S. Gordon,  S. R. Gwaltney,  G. Hawkins,  J. E. Herr,  
 A. Heyden,  S. Hirata,  E. G. Hohenstein,  G. Kedziora,  F. J. Keil,  
 C. Kelley,  Jihan Kim,  R. A. King,  R. Z. Khaliullin,  P. P. Korambath,  
 W. Kurlancheek,  A. Laurent,  A. M. Lee,  M. S. Lee,  S. V. Levchenko,  
 Ching Yeh Lin,  D. Liotard,  E. Livshits,  R. C. Lochan,  I. Lotan,  
 L. A. Martinez-Martinez,  P. E. Maslen,  N. Nair,  D. P. O'Neill,  
 D. Neuhauser,  E. Neuscamman,  C. M. Oana,  R. Olivares-Amaya,  R. Olson,  
 T. M. Perrine,  B. Peters,  P. A. Pieniazek,  A. Prociuk,  Y. M. Rhee,  
 J. Ritchie,  M. A. Rohrdanz,  E. Rosta,  N. J. Russ,  H. F. Schaefer III,  
 M. W. Schmidt,  N. E. Schultz,  S. Sharma,  N. Shenvi,  C. D. Sherrill,  
 A. C. Simmonett,  A. Sodt,  T. Stein,  D. Stuck,  K. S. Thanthiriwatte,  
 V. Vanovschi,  L. Vogt,  Tao Wang,  A. Warshel,  M. A. Watson,  
 C. F. Williams,  Q. Wu,  X. Xu,  Jun Yang,  W. Zhang,  Yan Zhao

 Please cite Q-Chem as follows:
 Y. Shao et al., Mol. Phys. 113, 184-215 (2015)
 DOI: 10.1080/00268976.2014.952696

 Q-Chem 5.4.0 for Intel X86 EM64T Linux

 Parts of Q-Chem use Armadillo 9.800.1 (Horizon Scraper).
 http://arma.sourceforge.net/

 Q-Chem begins on Sun Jul 10 10:23:25 2022  

 Host: 
0

     Scratch files written to ./qchem1903677//
 May1621 |scratch|qcdevops|jenkins|workspace|build_RNUM    
 Processing $rem in /cm/shared/apps/spack/cpu/opt/spack/linux-centos8-zen2/gcc-10.2.0/qchem-5.4-akfmr7b3t57bfs6qan3padb2wnb2i7cl/config/preferences:
 Processing $rem in /home/theleonzhang/.qchemrc:
 Symmetry turned off for PCM/SM12/SMD calculation
 Core orbitals will be frozen

 Checking the input file for inconsistencies... 	...done.

--------------------------------------------------------------
User input:
--------------------------------------------------------------
$molecule
0 1
C	-0.000593	-0.576309	0.019884
C	-0.000593	0.287291	1.119284
C	-0.000493	1.671191	0.796584
H	-0.000593	-0.081509	2.155984
C	-0.000493	1.891891	-0.592616
S	-0.000593	0.366091	-1.466916
C	-0.000493	2.758991	1.834484
H	-0.000493	2.333291	2.856584
H	-0.892893	3.413291	1.746084
H	0.891907	3.413191	1.746084
C	-0.000593	-2.017009	0.019884
H	-0.000493	-2.017209	-1.060116
H	-0.819793	-2.720809	0.019784
H	0.946507	-2.535909	0.019884
H	-0.000493	2.841091	-1.141716
$end

$rem
JOBTYPE		SP
EXCHANGE	HF
CORRELATION	pRIMP2
BASIS		cc-pvtz
METHOD		rimp2
AUX_BASIS	rimp2-cc-pvtz
SOLVENT_METHOD	PCM
PURECART	11111
SYMMETRY	false
MEM_TOTAL	110000
SCF_CONVERGENCE = 6
THRESH=10
$end



$solvent
dielectric 4.90
$end
--------------------------------------------------------------
 ----------------------------------------------------------------
             Standard Nuclear Orientation (Angstroms)
    I     Atom           X                Y                Z
 ----------------------------------------------------------------
    1      C      -0.0005930000    -0.5763090000     0.0198840000
    2      C      -0.0005930000     0.2872910000     1.1192840000
    3      C      -0.0004930000     1.6711910000     0.7965840000
    4      H      -0.0005930000    -0.0815090000     2.1559840000
    5      C      -0.0004930000     1.8918910000    -0.5926160000
    6      S      -0.0005930000     0.3660910000    -1.4669160000
    7      C      -0.0004930000     2.7589910000     1.8344840000
    8      H      -0.0004930000     2.3332910000     2.8565840000
    9      H      -0.8928930000     3.4132910000     1.7460840000
   10      H       0.8919070000     3.4131910000     1.7460840000
   11      C      -0.0005930000    -2.0170090000     0.0198840000
   12      H      -0.0004930000    -2.0172090000    -1.0601160000
   13      H      -0.8197930000    -2.7208090000     0.0197840000
   14      H       0.9465070000    -2.5359090000     0.0198840000
   15      H      -0.0004930000     2.8410910000    -1.1417160000
 ----------------------------------------------------------------
 Nuclear Repulsion Energy =         344.70379225 hartrees
 There are       30 alpha and       30 beta electrons

 Q-Chem warning in module forms1/BasisType.C, line 2236:

 You are not using the predefined 5D/6D in this basis set.

 Requested basis set is cc-pVTZ
 There are 120 shells and 326 basis functions

 Total QAlloc Memory Limit 110000 MB
 Mega-Array Size       188 MB
 MEM_STATIC part       192 MB
 Discretize the solute cavity surface with Lebedev spheres
	Using 110 Lebedev grid points for each H atom
	Using 194 Lebedev grid points for other atoms
	Atomic van der Waals radii will be scaled by 1.20
 Remove points where switching function is < 1.0e-08
 Keep 1055 surface tesserae and discard 1183 interior tesserae
 Molecular Surface Area = 158.899 Angst**2

                       Distance Matrix (Angstroms)
             C (  1)   C (  2)   C (  3)   H (  4)   C (  5)   S (  6)
   C (  2)  1.398029
   C (  3)  2.377923  1.421026
   H (  4)  2.192658  1.100346  2.218091
   C (  5)  2.543063  2.346347  1.406622  3.383653
   S (  6)  1.760310  2.587400  2.612799  3.650445  1.758541
   C (  7)  3.796972  2.573094  1.503511  2.858636  2.577339  4.077403
   H (  8)  4.063575  2.684088  2.163788  2.514379  3.477329  4.750003
   H (  9)  4.437665  3.310733  2.175509  3.630130  2.929258  4.517189
   H ( 10)  4.437616  3.310693  2.175429  3.630083  2.929206  4.517161
   C ( 11)  1.440700  2.553131  3.769096  2.882548  3.956596  2.808868
   H ( 12)  1.800720  3.171830  4.129362  3.753696  3.936956  2.417769
   H ( 13)  2.295641  3.305852  4.534792  3.492899  4.724753  3.522828
   H ( 14)  2.176472  3.174293  4.381753  3.388805  4.569177  3.395464
   H ( 15)  3.609423  3.410867  2.263995  4.406406  1.096582  2.496273
             C (  7)   H (  8)   H (  9)   H ( 10)   C ( 11)   H ( 12)
   H (  8)  1.107208
   H (  9)  1.110090  1.787733
   H ( 10)  1.110032  1.787672  1.784800
   C ( 11)  5.109105  5.193455  5.767506  5.767443
   H ( 12)  5.584872  5.853835  6.177497  6.177409  1.080000
   H ( 13)  5.830317  5.853428  6.372805  6.598180  1.080011  1.527249
   H ( 14)  5.676755  5.714262  6.461899  6.194719  1.079933  1.527173
   H ( 15)  2.977332  4.030417  3.076228  3.076210  4.995043  4.858985
             H ( 13)   H ( 14)
   H ( 14)  1.775951
   H ( 15)  5.740650  5.581958
 
 Requested basis set is rimp2-cc-pVTZ
 There are 250 shells and 848 basis functions
 A cutoff of  1.0D-10 yielded   6172 shell pairs
 There are     45166 function pairs (     58079 Cartesian)
 Smallest overlap matrix eigenvalue = 1.02E-04

 Scale SEOQF with 1.000000e+00/1.000000e-01/1.000000e-01

 Standard Electronic Orientation quadrupole field applied
 Nucleus-field energy     =     0.0000000035 hartrees
 Guess from superposition of atomic densities
 Warning:  Energy on first SCF cycle will be non-variational
 SAD guess density has 60.000000 electrons

 -----------------------------------------------------------------------
  General SCF calculation program by
  Eric Jon Sundstrom, Paul Horn, Yuezhi Mao, Dmitri Zuev, Alec White,
  David Stuck, Shaama M.S., Shane Yost, Joonho Lee, David Small,
  Daniel Levine, Susi Lehtola, Hugh Burton, Evgeny Epifanovsky,
  Bang C. Huynh
 -----------------------------------------------------------------------
 Hartree-Fock
 A restricted SCF calculation will be
 performed using DIIS
 SCF converges when DIIS error is below 1.0e-06
 ---------------------------------------
  Cycle       Energy         DIIS error
 ---------------------------------------
    1    -632.1099042171      2.92e-02  
    2    -629.3402458195      1.94e-03  
    3    -629.4107831572      6.80e-04  
    4    -629.4183406092      3.40e-04  
    5    -629.4204199801      6.41e-05  
    6    -629.4205557414      2.62e-05  
    7    -629.4205900405      1.16e-05  
    8    -629.4205994943      4.93e-06  
    9    -629.4206008951      1.76e-06  
   10    -629.4206010706      5.44e-07  Convergence criterion met
 ---------------------------------------
 SCF time:   CPU 144.07s  wall 146.00s 

************** Final PCM Free Energy Summary **************
 G_electrostatic  =      -0.00506116 hartree =      -3.17592622 kcal/mol
 G_cavitation     =       0.00000000 hartree =       0.00000000 kcal/mol
 G_dispersion     =       0.00000000 hartree =       0.00000000 kcal/mol
 G_repulsion      =       0.00000000 hartree =       0.00000000 kcal/mol
 --------------------------------------------------
 Non-electrostatic Free Energy =       0.00000000 hartree =       0.00000000 kcal/mol
 Total                         =      -0.00506116 hartree =      -3.17592622 kcal/mol
 --------------------------------------------------
 SCF Energy (H0 + V/2)                       =    -629.42060107 
 Solute Internal Energy (H0)                 =    -629.41553991 
 Total Free Energy (H0 + V/2 + non-elec)     =    -629.42060107 hartree
                                             = -394967.38841432 kcal/mol
***********************************************************

 SCF   energy in the final basis set =     -629.4206010706
 Total energy in the final basis set =     -629.4206010706


 --------------------------------------------------------------
  Generalized many-body perturbation theory program
  by Joonho Lee, Fazle Rob, Xintian Feng, Evgeny Epifanovsky

 No regularization used 
 (reg. param. = 0.0000e+00)
  (P|Q)^-1/2 Time:  CPU 0.49 s  wall 0.49 s

 In RI-MP2 calculation: 
 # of frozen core orbitals: 11

 Components of the RIMP2 correlation energy:
        aaaa    correlation energy =        -0.1455787335 a.u.
        abab    correlation energy =        -0.8866890862 a.u.
        bbbb    correlation energy =        -0.1455787335 a.u.
        non-Brillouin singles      =        -0.0000000000 a.u.
        total same-spin energy     =        -0.2911574670 a.u.
        total opposite-spin energy =        -0.8866890862 a.u.

 Total  RIMP2   correlation energy =        -1.1778465532 a.u.
        RIMP2         total energy =      -630.5984476238 a.u.

 RI-MP2 Energy Time:  CPU 11.23 s  wall 11.31 s
 
 --------------------------------------------------------------
 
                    Orbital Energies (a.u.)
 --------------------------------------------------------------
 
 Alpha MOs
 -- Occupied --
-91.9808 -11.2748 -11.2578 -11.2471 -11.2291 -11.2268 -11.2160  -8.9806
 -6.6615  -6.6610  -6.6604  -1.1609  -1.0551  -0.9953  -0.9464  -0.8817
 -0.7480  -0.7185  -0.6482  -0.5915  -0.5754  -0.5659  -0.5536  -0.5474
 -0.5089  -0.4859  -0.4650  -0.4438  -0.3384  -0.3042
 -- Virtual --
  0.1044   0.1414   0.1500   0.1735   0.1885   0.1923   0.1939   0.2330
  0.2397   0.2435   0.2453   0.2850   0.2877   0.3157   0.3424   0.3507
  0.3727   0.3993   0.4055   0.4104   0.4469   0.4701   0.4729   0.4795
  0.4923   0.5071   0.5249   0.5271   0.5354   0.5744   0.5750   0.5959
  0.6025   0.6077   0.6143   0.6295   0.6312   0.6417   0.6448   0.6535
  0.6579   0.6632   0.6890   0.6936   0.7343   0.7550   0.7646   0.7756
  0.8010   0.8038   0.8420   0.8538   0.8695   0.8969   0.9001   0.9381
  0.9614   0.9663   0.9782   1.0116   1.0392   1.0483   1.0644   1.0725
  1.0808   1.0842   1.1239   1.1259   1.1576   1.1688   1.1901   1.2107
  1.2229   1.2503   1.2549   1.2596   1.2668   1.3053   1.3083   1.3152
  1.3622   1.3838   1.3975   1.4105   1.4389   1.4466   1.4600   1.4809
  1.4836   1.5028   1.5180   1.5409   1.5489   1.5602   1.5699   1.5857
  1.6216   1.6310   1.6341   1.6639   1.6873   1.6949   1.7089   1.7526
  1.7757   1.7814   1.8082   1.8490   1.8897   1.8948   1.9378   1.9496
  1.9943   2.0526   2.1027   2.1211   2.1843   2.1989   2.2212   2.2427
  2.2584   2.2995   2.3592   2.4173   2.4545   2.5148   2.5224   2.5635
  2.5752   2.6051   2.6180   2.6534   2.6718   2.6779   2.7159   2.7347
  2.7470   2.7606   2.7915   2.8079   2.8142   2.8371   2.8515   2.8800
  2.9068   2.9104   2.9337   2.9601   2.9931   3.0092   3.0494   3.0783
  3.0892   3.1137   3.1364   3.1525   3.1622   3.1763   3.1858   3.2027
  3.2222   3.2349   3.2540   3.2689   3.2877   3.3007   3.3139   3.3280
  3.3407   3.3438   3.3739   3.3808   3.3915   3.4146   3.4234   3.4356
  3.4387   3.4572   3.4860   3.5018   3.5062   3.5108   3.5285   3.5665
  3.5935   3.6053   3.6110   3.6181   3.6337   3.6360   3.6617   3.6782
  3.7032   3.7166   3.7382   3.7572   3.7699   3.7791   3.7916   3.8005
  3.8163   3.8300   3.8826   3.8976   3.9061   3.9251   3.9331   3.9532
  3.9651   3.9854   3.9992   4.0272   4.0345   4.0442   4.0994   4.1065
  4.1186   4.1461   4.1621   4.1778   4.1837   4.2117   4.2245   4.2461
  4.2846   4.2866   4.2978   4.3372   4.3424   4.3489   4.3962   4.4042
  4.4092   4.4302   4.4432   4.4473   4.4593   4.4950   4.5454   4.5588
  4.5887   4.6291   4.6453   4.6821   4.7034   4.7465   4.7496   4.7876
  4.7943   4.8219   4.8553   4.9045   4.9349   5.0055   5.0804   5.0897
  5.1120   5.1561   5.1630   5.1954   5.2533   5.2855   5.2986   5.3046
  5.3638   5.4003   5.4202   5.4418   5.4696   5.4949   5.5495   5.5662
  5.5953   5.6223   5.6341   5.7017   5.7467   5.8235   5.8423   5.8780
  5.9025   5.9559   6.0325   6.1364   6.2270   6.2524   6.3123   6.3549
  6.4338   6.5098   9.1756  11.4147  12.9151  13.9213  14.1856  14.5390
 --------------------------------------------------------------
 
          Ground-State Mulliken Net Atomic Charges

     Atom                 Charge (a.u.)
  ----------------------------------------
      1 C                     0.059892
      2 C                    -0.263275
      3 C                     0.039913
      4 H                     0.180144
      5 C                    -0.260495
      6 S                    -0.002788
      7 C                    -0.273356
      8 H                     0.101933
      9 H                     0.106817
     10 H                     0.106855
     11 C                    -0.371451
     12 H                     0.112416
     13 H                     0.142640
     14 H                     0.125280
     15 H                     0.195475
  ----------------------------------------
  Sum of atomic charges =     0.000000

 -----------------------------------------------------------------
                    Cartesian Multipole Moments
 -----------------------------------------------------------------
    Charge (ESU x 10^10)
                -0.0000
    Dipole Moment (Debye)
         X       0.0177      Y       0.0387      Z       0.8450
       Tot       0.8461
    Quadrupole Moments (Debye-Ang)
        XX     -53.6870     XY       0.1027     YY     -42.1841
        XZ       0.0152     YZ       1.4966     ZZ     -48.8422
    Octopole Moments (Debye-Ang^2)
       XXX       0.0524    XXY     -32.9008    XYY      -0.7915
       YYY     -78.3321    XXZ      -1.5899    XYZ      -0.0414
       YYZ      -7.5409    XZZ      -0.0757    YZZ     -23.1729
       ZZZ       2.2430
    Hexadecapole Moments (Debye-Ang^3)
      XXXX     -78.2823   XXXY      -0.0210   XXYY    -156.7414
      XYYY       3.4743   YYYY    -814.1862   XXXZ       0.0141
      XXYZ     -31.4426   XYYZ       0.1342   YYYZ    -102.1449
      XXZZ    -101.9096   XYZZ       0.1627   YYZZ    -218.3598
      XZZZ       0.0421   YZZZ    -105.2859   ZZZZ    -481.0922
 -----------------------------------------------------------------
 Total job time:  158.17s(wall), 155.68s(cpu) 
 Sun Jul 10 10:26:03 2022

        *************************************************************
        *                                                           *
        *  Thank you very much for using Q-Chem.  Have a nice day.  *
        *                                                           *
        *************************************************************


remove work dirs ./qchem1903677.0 -- ./qchem1903677.-1
rm -rf ./qchem1903677
You are running Q-Chem version: 5.4.0

#
# job setting
#
local host:  exp-12-30
current dir: /expanse/lustre/scratch/theleonzhang/temp_project/Hydrogenated_Impropers_Test
input file:  Methylthiophene_Phi_0_Theta_270_Methylthiophene_Hydrogenated_Improper_Alternate.qcin
output file: 
nprocs     : 0
nthreads   : 1
#
# qchem installation setting
#
QC:          /cm/shared/apps/spack/cpu/opt/spack/linux-centos8-zen2/gcc-10.2.0/qchem-5.4-akfmr7b3t57bfs6qan3padb2wnb2i7cl
QCAUX:       /cm/shared/apps/spack/cpu/opt/spack/linux-centos8-zen2/gcc-10.2.0/qchem-5.4-akfmr7b3t57bfs6qan3padb2wnb2i7cl/qcaux
QCPROG:      /cm/shared/apps/spack/cpu/opt/spack/linux-centos8-zen2/gcc-10.2.0/qchem-5.4-akfmr7b3t57bfs6qan3padb2wnb2i7cl/exe/qcprog.exe_s
QCPROG_S:    /cm/shared/apps/spack/cpu/opt/spack/linux-centos8-zen2/gcc-10.2.0/qchem-5.4-akfmr7b3t57bfs6qan3padb2wnb2i7cl/exe/qcprog.exe_s
PARALLEL:    -DSERIAL
QCMPI:       mpich
#
# qchem directory setting
#
qcrun:       qchem880043
QCSCRATCH:   .
QCLOCALSCR:  
QCTMPDIR:    .
QCFILEPREF:  ./qchem880043
QCSAVEDIR:   
workdirs:    ./qchem880043
workdir0:    ./qchem880043
partmpdirs =  
#
# parallel setting
#
QCRSH:           ssh
QCMPI:           mpich
QCMPIRUN:        /cm/shared/apps/spack/cpu/opt/spack/linux-centos8-zen2/gcc-10.2.0/qchem-5.4-akfmr7b3t57bfs6qan3padb2wnb2i7cl/bin/mpi/mpirun_qchem
QCMACHINEFILE:   ./qchem880043/hostfile

#
# env setting
#
exported envs:   QC QCAUX QCSCRATCH QCRUNNAME QCFILEPREF QCPROG QCPROG_S GUIFILE

Running Job 1 of 1 Methylthiophene_Phi_0_Theta_270_Methylthiophene_Hydrogenated_Improper_Alternate.qcin
qchem Methylthiophene_Phi_0_Theta_270_Methylthiophene_Hydrogenated_Improper_Alternate.qcin_880043.0 ./qchem880043/ 0
/cm/shared/apps/spack/cpu/opt/spack/linux-centos8-zen2/gcc-10.2.0/qchem-5.4-akfmr7b3t57bfs6qan3padb2wnb2i7cl/exe/qcprog.exe_s Methylthiophene_Phi_0_Theta_270_Methylthiophene_Hydrogenated_Improper_Alternate.qcin_880043.0 ./qchem880043/
                  Welcome to Q-Chem
     A Quantum Leap Into The Future Of Chemistry


 Q-Chem 5.4, Q-Chem, Inc., Pleasanton, CA (2021)

 License issued to: University of California, San Diego (site)

 E. Epifanovsky,  A. T. B. Gilbert,  Xintian Feng,  Joonho Lee,  Yuezhi Mao,  
 N. Mardirossian,  P. Pokhilko,  A. White,  M. Wormit,  M. P. Coons,  
 A. L. Dempwolff,  Zhengting Gan,  D. Hait,  P. R. Horn,  L. D. Jacobson,  
 I. Kaliman,  J. Kussmann,  A. W. Lange,  Ka Un Lao,  D. S. Levine,  Jie Liu,  
 S. C. McKenzie,  A. F. Morrison,  K. Nanda,  F. Plasser,  D. R. Rehn,  
 M. L. Vidal,  Zhi-Qiang You,  Ying Zhu,  B. Alam,  B. Albrecht,  
 A. Aldossary,  E. Alguire,  J. H. Andersen,  D. Barton,  K. Begam,  A. Behn,  
 Y. A. Bernard,  E. J. Berquist,  H. Burton,  A. Carreras,  K. Carter-Fenk,  
 R. Chakraborty,  A. D. Chien,  K. D. Closser,  V. Cofer-Shabica,  
 S. Dasgupta,  Jia Deng,  M. de Wergifosse,  M. Diedenhofen,  Hainam Do,  
 S. Ehlert,  Po-Tung Fang,  S. Fatehi,  Qingguo Feng,  J. Gayvert,  
 Qinghui Ge,  G. Gidofalvi,  M. Goldey,  J. Gomes,  C. Gonzalez-Espinoza,  
 S. Gulania,  A. Gunina,  M. W. D. Hanson-Heine,  P. H. P. Harbach,  
 A. W. Hauser,  M. F. Herbst,  M. Hernandez Vera,  M. Hodecker,  
 Z. C. Holden,  S. Houck,  Xunkun Huang,  Kerwin Hui,  B. C. Huynh,  
 M. Ivanov,  Hyunjun Ji,  Hanjie Jiang,  B. Kaduk,  S. Kaehler,  
 K. Khistyaev,  Jaehoon Kim,  P. Klunzinger,  Z. Koczor-Benda,  
 Joong Hoon Koh,  D. Kosenkov,  L. Koulias,  T. Kowalczyk,  C. M. Krauter,  
 K. Kue,  A. Kunitsa,  T. Kus,  A. Landau,  K. V. Lawler,  D. Lefrancois,  
 S. Lehtola,  Rain Li,  Yi-Pei Li,  Jiashu Liang,  M. Liebenthal,  
 Hung-Hsuan Lin,  You-Sheng Lin,  Fenglai Liu,  Kuan-Yu Liu,  
 M. Loipersberger,  A. Luenser,  A. Manjanath,  P. Manohar,  E. Mansoor,  
 S. F. Manzer,  Shan-Ping Mao,  A. V. Marenich,  T. Markovich,  S. Mason,  
 S. A. Maurer,  P. F. McLaughlin,  M. F. S. J. Menger,  J.-M. Mewes,  
 S. A. Mewes,  P. Morgante,  J. W. Mullinax,  T. S. Nguyen-Beck,  
 K. J. Oosterbaan,  G. Paran,  Alexander C. Paul,  Suranjan K. Paul,  
 F. Pavosevic,  Zheng Pei,  S. Prager,  E. I. Proynov,  E. Ramos,  B. Rana,  
 A. E. Rask,  A. Rettig,  R. M. Richard,  F. Rob,  E. Rossomme,  T. Scheele,  
 M. Scheurer,  M. Schneider,  N. Sergueev,  S. M. Sharada,  W. Skomorowski,  
 D. W. Small,  C. J. Stein,  Yu-Chuan Su,  E. J. Sundstrom,  Zhen Tao,  
 J. Thirman,  T. Tsuchimochi,  N. M. Tubman,  S. P. Veccham,  O. Vydrov,  
 J. Wenzel,  J. Witte,  A. Yamada,  Kun Yao,  S. Yeganeh,  S. R. Yost,  
 A. Zech,  Igor Ying Zhang,  Xing Zhang,  Yu Zhang,  D. Zuev,  
 A. Aspuru-Guzik,  A. T. Bell,  N. A. Besley,  K. B. Bravaya,  B. R. Brooks,  
 D. Casanova,  Jeng-Da Chai,  S. Coriani,  C. J. Cramer,  
 A. E. DePrince, III,  R. A. DiStasio Jr.,  A. Dreuw,  B. D. Dunietz,  
 T. R. Furlani,  W. A. Goddard III,  S. Grimme,  S. Hammes-Schiffer,  
 T. Head-Gordon,  W. J. Hehre,  Chao-Ping Hsu,  T.-C. Jagau,  Yousung Jung,  
 A. Klamt,  Jing Kong,  D. S. Lambrecht,  WanZhen Liang,  N. J. Mayhall,  
 C. W. McCurdy,  J. B. Neaton,  C. Ochsenfeld,  J. A. Parkhill,  R. Peverati,  
 V. A. Rassolov,  Yihan Shao,  L. V. Slipchenko,  T. Stauch,  R. P. Steele,  
 J. E. Subotnik,  A. J. W. Thom,  A. Tkatchenko,  D. G. Truhlar,  
 T. Van Voorhis,  T. A. Wesolowski,  K. B. Whaley,  H. L. Woodcock III,  
 P. M. Zimmerman,  S. Faraji,  P. M. W. Gill,  M. Head-Gordon,  
 J. M. Herbert,  A. I. Krylov

 Contributors to earlier versions of Q-Chem not listed above: 
 R. D. Adamson,  B. Austin,  R. Baer,  J. Baker,  G. J. O. Beran,  
 K. Brandhorst,  S. T. Brown,  E. F. C. Byrd,  A. K. Chakraborty,  
 G. K. L. Chan,  Chun-Min Chang,  Yunqing Chen,  C.-L. Cheng,  
 Siu Hung Chien,  D. M. Chipman,  D. L. Crittenden,  H. Dachsel,  
 R. J. Doerksen,  A. D. Dutoi,  R. G. Edgar,  J. Fosso-Tande,  
 L. Fusti-Molnar,  D. Ghosh,  A. Ghysels,  A. Golubeva-Zadorozhnaya,  
 J. Gonthier,  M. S. Gordon,  S. R. Gwaltney,  G. Hawkins,  J. E. Herr,  
 A. Heyden,  S. Hirata,  E. G. Hohenstein,  G. Kedziora,  F. J. Keil,  
 C. Kelley,  Jihan Kim,  R. A. King,  R. Z. Khaliullin,  P. P. Korambath,  
 W. Kurlancheek,  A. Laurent,  A. M. Lee,  M. S. Lee,  S. V. Levchenko,  
 Ching Yeh Lin,  D. Liotard,  E. Livshits,  R. C. Lochan,  I. Lotan,  
 L. A. Martinez-Martinez,  P. E. Maslen,  N. Nair,  D. P. O'Neill,  
 D. Neuhauser,  E. Neuscamman,  C. M. Oana,  R. Olivares-Amaya,  R. Olson,  
 T. M. Perrine,  B. Peters,  P. A. Pieniazek,  A. Prociuk,  Y. M. Rhee,  
 J. Ritchie,  M. A. Rohrdanz,  E. Rosta,  N. J. Russ,  H. F. Schaefer III,  
 M. W. Schmidt,  N. E. Schultz,  S. Sharma,  N. Shenvi,  C. D. Sherrill,  
 A. C. Simmonett,  A. Sodt,  T. Stein,  D. Stuck,  K. S. Thanthiriwatte,  
 V. Vanovschi,  L. Vogt,  Tao Wang,  A. Warshel,  M. A. Watson,  
 C. F. Williams,  Q. Wu,  X. Xu,  Jun Yang,  W. Zhang,  Yan Zhao

 Please cite Q-Chem as follows:
 Y. Shao et al., Mol. Phys. 113, 184-215 (2015)
 DOI: 10.1080/00268976.2014.952696

 Q-Chem 5.4.0 for Intel X86 EM64T Linux

 Parts of Q-Chem use Armadillo 9.800.1 (Horizon Scraper).
 http://arma.sourceforge.net/

 Q-Chem begins on Sun Jul 10 10:51:57 2022  

 Host: 
0

     Scratch files written to ./qchem880043//
 May1621 |scratch|qcdevops|jenkins|workspace|build_RNUM    
 Processing $rem in /cm/shared/apps/spack/cpu/opt/spack/linux-centos8-zen2/gcc-10.2.0/qchem-5.4-akfmr7b3t57bfs6qan3padb2wnb2i7cl/config/preferences:
 Processing $rem in /home/theleonzhang/.qchemrc:
 Symmetry turned off for PCM/SM12/SMD calculation
 Core orbitals will be frozen

 Checking the input file for inconsistencies... 	...done.

--------------------------------------------------------------
User input:
--------------------------------------------------------------
$molecule
0 1
C	-0.000593	-0.576309	0.019884
C	-0.000593	0.287291	1.119284
C	-0.000493	1.671191	0.796584
H	-0.000593	-0.081509	2.155984
C	-0.000493	1.891891	-0.592616
S	-0.000593	0.366091	-1.466916
C	-0.000493	2.758991	1.834484
H	-0.000493	2.333291	2.856584
H	-0.892893	3.413291	1.746084
H	0.891907	3.413191	1.746084
C	-0.000593	-2.017009	0.019884
H	-0.000493	-2.017209	-1.060116
H	-0.819793	-2.720809	0.019784
H	0.946507	-2.535909	0.019884
H	-0.000493	2.841091	-1.141716
$end

$rem
JOBTYPE		SP
EXCHANGE	HF
CORRELATION	pRIMP2
BASIS		cc-pvtz
METHOD		rimp2
AUX_BASIS	rimp2-cc-pvtz
SOLVENT_METHOD	PCM
PURECART	11111
SYMMETRY	false
MEM_TOTAL	110000
SCF_CONVERGENCE = 6
THRESH=10
$end



$solvent
dielectric 4.90
$end
--------------------------------------------------------------
 ----------------------------------------------------------------
             Standard Nuclear Orientation (Angstroms)
    I     Atom           X                Y                Z
 ----------------------------------------------------------------
    1      C      -0.0005930000    -0.5763090000     0.0198840000
    2      C      -0.0005930000     0.2872910000     1.1192840000
    3      C      -0.0004930000     1.6711910000     0.7965840000
    4      H      -0.0005930000    -0.0815090000     2.1559840000
    5      C      -0.0004930000     1.8918910000    -0.5926160000
    6      S      -0.0005930000     0.3660910000    -1.4669160000
    7      C      -0.0004930000     2.7589910000     1.8344840000
    8      H      -0.0004930000     2.3332910000     2.8565840000
    9      H      -0.8928930000     3.4132910000     1.7460840000
   10      H       0.8919070000     3.4131910000     1.7460840000
   11      C      -0.0005930000    -2.0170090000     0.0198840000
   12      H      -0.0004930000    -2.0172090000    -1.0601160000
   13      H      -0.8197930000    -2.7208090000     0.0197840000
   14      H       0.9465070000    -2.5359090000     0.0198840000
   15      H      -0.0004930000     2.8410910000    -1.1417160000
 ----------------------------------------------------------------
 Nuclear Repulsion Energy =         344.70379225 hartrees
 There are       30 alpha and       30 beta electrons

 Q-Chem warning in module forms1/BasisType.C, line 2236:

 You are not using the predefined 5D/6D in this basis set.

 Requested basis set is cc-pVTZ
 There are 120 shells and 326 basis functions

 Total QAlloc Memory Limit 110000 MB
 Mega-Array Size       188 MB
 MEM_STATIC part       192 MB
 Discretize the solute cavity surface with Lebedev spheres
	Using 110 Lebedev grid points for each H atom
	Using 194 Lebedev grid points for other atoms
	Atomic van der Waals radii will be scaled by 1.20
 Remove points where switching function is < 1.0e-08
 Keep 1055 surface tesserae and discard 1183 interior tesserae
 Molecular Surface Area = 158.899 Angst**2

                       Distance Matrix (Angstroms)
             C (  1)   C (  2)   C (  3)   H (  4)   C (  5)   S (  6)
   C (  2)  1.398029
   C (  3)  2.377923  1.421026
   H (  4)  2.192658  1.100346  2.218091
   C (  5)  2.543063  2.346347  1.406622  3.383653
   S (  6)  1.760310  2.587400  2.612799  3.650445  1.758541
   C (  7)  3.796972  2.573094  1.503511  2.858636  2.577339  4.077403
   H (  8)  4.063575  2.684088  2.163788  2.514379  3.477329  4.750003
   H (  9)  4.437665  3.310733  2.175509  3.630130  2.929258  4.517189
   H ( 10)  4.437616  3.310693  2.175429  3.630083  2.929206  4.517161
   C ( 11)  1.440700  2.553131  3.769096  2.882548  3.956596  2.808868
   H ( 12)  1.800720  3.171830  4.129362  3.753696  3.936956  2.417769
   H ( 13)  2.295641  3.305852  4.534792  3.492899  4.724753  3.522828
   H ( 14)  2.176472  3.174293  4.381753  3.388805  4.569177  3.395464
   H ( 15)  3.609423  3.410867  2.263995  4.406406  1.096582  2.496273
             C (  7)   H (  8)   H (  9)   H ( 10)   C ( 11)   H ( 12)
   H (  8)  1.107208
   H (  9)  1.110090  1.787733
   H ( 10)  1.110032  1.787672  1.784800
   C ( 11)  5.109105  5.193455  5.767506  5.767443
   H ( 12)  5.584872  5.853835  6.177497  6.177409  1.080000
   H ( 13)  5.830317  5.853428  6.372805  6.598180  1.080011  1.527249
   H ( 14)  5.676755  5.714262  6.461899  6.194719  1.079933  1.527173
   H ( 15)  2.977332  4.030417  3.076228  3.076210  4.995043  4.858985
             H ( 13)   H ( 14)
   H ( 14)  1.775951
   H ( 15)  5.740650  5.581958
 
 Requested basis set is rimp2-cc-pVTZ
 There are 250 shells and 848 basis functions
 A cutoff of  1.0D-10 yielded   6172 shell pairs
 There are     45166 function pairs (     58079 Cartesian)
 Smallest overlap matrix eigenvalue = 1.02E-04

 Scale SEOQF with 1.000000e+00/1.000000e-01/1.000000e-01

 Standard Electronic Orientation quadrupole field applied
 Nucleus-field energy     =     0.0000000035 hartrees
 Guess from superposition of atomic densities
 Warning:  Energy on first SCF cycle will be non-variational
 SAD guess density has 60.000000 electrons

 -----------------------------------------------------------------------
  General SCF calculation program by
  Eric Jon Sundstrom, Paul Horn, Yuezhi Mao, Dmitri Zuev, Alec White,
  David Stuck, Shaama M.S., Shane Yost, Joonho Lee, David Small,
  Daniel Levine, Susi Lehtola, Hugh Burton, Evgeny Epifanovsky,
  Bang C. Huynh
 -----------------------------------------------------------------------
 Hartree-Fock
 A restricted SCF calculation will be
 performed using DIIS
 SCF converges when DIIS error is below 1.0e-06
 ---------------------------------------
  Cycle       Energy         DIIS error
 ---------------------------------------
    1    -632.1099042171      2.92e-02  
    2    -629.3402458195      1.94e-03  
    3    -629.4107831572      6.80e-04  
    4    -629.4183406092      3.40e-04  
    5    -629.4204199801      6.41e-05  
    6    -629.4205557414      2.62e-05  
    7    -629.4205900405      1.16e-05  
    8    -629.4205994943      4.93e-06  
    9    -629.4206008951      1.76e-06  
   10    -629.4206010706      5.44e-07  Convergence criterion met
 ---------------------------------------
 SCF time:   CPU 143.54s  wall 144.00s 

************** Final PCM Free Energy Summary **************
 G_electrostatic  =      -0.00506116 hartree =      -3.17592622 kcal/mol
 G_cavitation     =       0.00000000 hartree =       0.00000000 kcal/mol
 G_dispersion     =       0.00000000 hartree =       0.00000000 kcal/mol
 G_repulsion      =       0.00000000 hartree =       0.00000000 kcal/mol
 --------------------------------------------------
 Non-electrostatic Free Energy =       0.00000000 hartree =       0.00000000 kcal/mol
 Total                         =      -0.00506116 hartree =      -3.17592622 kcal/mol
 --------------------------------------------------
 SCF Energy (H0 + V/2)                       =    -629.42060107 
 Solute Internal Energy (H0)                 =    -629.41553991 
 Total Free Energy (H0 + V/2 + non-elec)     =    -629.42060107 hartree
                                             = -394967.38841432 kcal/mol
***********************************************************

 SCF   energy in the final basis set =     -629.4206010706
 Total energy in the final basis set =     -629.4206010706


 --------------------------------------------------------------
  Generalized many-body perturbation theory program
  by Joonho Lee, Fazle Rob, Xintian Feng, Evgeny Epifanovsky

 No regularization used 
 (reg. param. = 0.0000e+00)
  (P|Q)^-1/2 Time:  CPU 0.48 s  wall 0.48 s

 In RI-MP2 calculation: 
 # of frozen core orbitals: 11

 Components of the RIMP2 correlation energy:
        aaaa    correlation energy =        -0.1455787335 a.u.
        abab    correlation energy =        -0.8866890862 a.u.
        bbbb    correlation energy =        -0.1455787335 a.u.
        non-Brillouin singles      =        -0.0000000000 a.u.
        total same-spin energy     =        -0.2911574670 a.u.
        total opposite-spin energy =        -0.8866890862 a.u.

 Total  RIMP2   correlation energy =        -1.1778465532 a.u.
        RIMP2         total energy =      -630.5984476238 a.u.

 RI-MP2 Energy Time:  CPU 11.01 s  wall 11.04 s
 
 --------------------------------------------------------------
 
                    Orbital Energies (a.u.)
 --------------------------------------------------------------
 
 Alpha MOs
 -- Occupied --
-91.9808 -11.2748 -11.2578 -11.2471 -11.2291 -11.2268 -11.2160  -8.9806
 -6.6615  -6.6610  -6.6604  -1.1609  -1.0551  -0.9953  -0.9464  -0.8817
 -0.7480  -0.7185  -0.6482  -0.5915  -0.5754  -0.5659  -0.5536  -0.5474
 -0.5089  -0.4859  -0.4650  -0.4438  -0.3384  -0.3042
 -- Virtual --
  0.1044   0.1414   0.1500   0.1735   0.1885   0.1923   0.1939   0.2330
  0.2397   0.2435   0.2453   0.2850   0.2877   0.3157   0.3424   0.3507
  0.3727   0.3993   0.4055   0.4104   0.4469   0.4701   0.4729   0.4795
  0.4923   0.5071   0.5249   0.5271   0.5354   0.5744   0.5750   0.5959
  0.6025   0.6077   0.6143   0.6295   0.6312   0.6417   0.6448   0.6535
  0.6579   0.6632   0.6890   0.6936   0.7343   0.7550   0.7646   0.7756
  0.8010   0.8038   0.8420   0.8538   0.8695   0.8969   0.9001   0.9381
  0.9614   0.9663   0.9782   1.0116   1.0392   1.0483   1.0644   1.0725
  1.0808   1.0842   1.1239   1.1259   1.1576   1.1688   1.1901   1.2107
  1.2229   1.2503   1.2549   1.2596   1.2668   1.3053   1.3083   1.3152
  1.3622   1.3838   1.3975   1.4105   1.4389   1.4466   1.4600   1.4809
  1.4836   1.5028   1.5180   1.5409   1.5489   1.5602   1.5699   1.5857
  1.6216   1.6310   1.6341   1.6639   1.6873   1.6949   1.7089   1.7526
  1.7757   1.7814   1.8082   1.8490   1.8897   1.8948   1.9378   1.9496
  1.9943   2.0526   2.1027   2.1211   2.1843   2.1989   2.2212   2.2427
  2.2584   2.2995   2.3592   2.4173   2.4545   2.5148   2.5224   2.5635
  2.5752   2.6051   2.6180   2.6534   2.6718   2.6779   2.7159   2.7347
  2.7470   2.7606   2.7915   2.8079   2.8142   2.8371   2.8515   2.8800
  2.9068   2.9104   2.9337   2.9601   2.9931   3.0092   3.0494   3.0783
  3.0892   3.1137   3.1364   3.1525   3.1622   3.1763   3.1858   3.2027
  3.2222   3.2349   3.2540   3.2689   3.2877   3.3007   3.3139   3.3280
  3.3407   3.3438   3.3739   3.3808   3.3915   3.4146   3.4234   3.4356
  3.4387   3.4572   3.4860   3.5018   3.5062   3.5108   3.5285   3.5665
  3.5935   3.6053   3.6110   3.6181   3.6337   3.6360   3.6617   3.6782
  3.7032   3.7166   3.7382   3.7572   3.7699   3.7791   3.7916   3.8005
  3.8163   3.8300   3.8826   3.8976   3.9061   3.9251   3.9331   3.9532
  3.9651   3.9854   3.9992   4.0272   4.0345   4.0442   4.0994   4.1065
  4.1186   4.1461   4.1621   4.1778   4.1837   4.2117   4.2245   4.2461
  4.2846   4.2866   4.2978   4.3372   4.3424   4.3489   4.3962   4.4042
  4.4092   4.4302   4.4432   4.4473   4.4593   4.4950   4.5454   4.5588
  4.5887   4.6291   4.6453   4.6821   4.7034   4.7465   4.7496   4.7876
  4.7943   4.8219   4.8553   4.9045   4.9349   5.0055   5.0804   5.0897
  5.1120   5.1561   5.1630   5.1954   5.2533   5.2855   5.2986   5.3046
  5.3638   5.4003   5.4202   5.4418   5.4696   5.4949   5.5495   5.5662
  5.5953   5.6223   5.6341   5.7017   5.7467   5.8235   5.8423   5.8780
  5.9025   5.9559   6.0325   6.1364   6.2270   6.2524   6.3123   6.3549
  6.4338   6.5098   9.1756  11.4147  12.9151  13.9213  14.1856  14.5390
 --------------------------------------------------------------
 
          Ground-State Mulliken Net Atomic Charges

     Atom                 Charge (a.u.)
  ----------------------------------------
      1 C                     0.059892
      2 C                    -0.263275
      3 C                     0.039913
      4 H                     0.180144
      5 C                    -0.260495
      6 S                    -0.002788
      7 C                    -0.273356
      8 H                     0.101933
      9 H                     0.106817
     10 H                     0.106855
     11 C                    -0.371451
     12 H                     0.112416
     13 H                     0.142640
     14 H                     0.125280
     15 H                     0.195475
  ----------------------------------------
  Sum of atomic charges =     0.000000

 -----------------------------------------------------------------
                    Cartesian Multipole Moments
 -----------------------------------------------------------------
    Charge (ESU x 10^10)
                -0.0000
    Dipole Moment (Debye)
         X       0.0177      Y       0.0387      Z       0.8450
       Tot       0.8461
    Quadrupole Moments (Debye-Ang)
        XX     -53.6870     XY       0.1027     YY     -42.1841
        XZ       0.0152     YZ       1.4966     ZZ     -48.8422
    Octopole Moments (Debye-Ang^2)
       XXX       0.0524    XXY     -32.9008    XYY      -0.7915
       YYY     -78.3321    XXZ      -1.5899    XYZ      -0.0414
       YYZ      -7.5409    XZZ      -0.0757    YZZ     -23.1729
       ZZZ       2.2430
    Hexadecapole Moments (Debye-Ang^3)
      XXXX     -78.2823   XXXY      -0.0210   XXYY    -156.7414
      XYYY       3.4743   YYYY    -814.1862   XXXZ       0.0141
      XXYZ     -31.4426   XYYZ       0.1342   YYYZ    -102.1449
      XXZZ    -101.9096   XYZZ       0.1627   YYZZ    -218.3598
      XZZZ       0.0421   YZZZ    -105.2859   ZZZZ    -481.0922
 -----------------------------------------------------------------
 Total job time:  156.31s(wall), 154.90s(cpu) 
 Sun Jul 10 10:54:33 2022

        *************************************************************
        *                                                           *
        *  Thank you very much for using Q-Chem.  Have a nice day.  *
        *                                                           *
        *************************************************************


remove work dirs ./qchem880043.0 -- ./qchem880043.-1
rm -rf ./qchem880043
