You are running Q-Chem version: 5.4.0

#
# job setting
#
local host:  exp-5-33
current dir: /expanse/lustre/scratch/theleonzhang/temp_project/Hydrogenated_Impropers_Test
input file:  Methylthiophene_Phi_5_Theta_50_Methylthiophene_Hydrogenated_Improper_Alternate.qcin
output file: 
nprocs     : 0
nthreads   : 1
#
# qchem installation setting
#
QC:          /cm/shared/apps/spack/cpu/opt/spack/linux-centos8-zen2/gcc-10.2.0/qchem-5.4-akfmr7b3t57bfs6qan3padb2wnb2i7cl
QCAUX:       /cm/shared/apps/spack/cpu/opt/spack/linux-centos8-zen2/gcc-10.2.0/qchem-5.4-akfmr7b3t57bfs6qan3padb2wnb2i7cl/qcaux
QCPROG:      /cm/shared/apps/spack/cpu/opt/spack/linux-centos8-zen2/gcc-10.2.0/qchem-5.4-akfmr7b3t57bfs6qan3padb2wnb2i7cl/exe/qcprog.exe_s
QCPROG_S:    /cm/shared/apps/spack/cpu/opt/spack/linux-centos8-zen2/gcc-10.2.0/qchem-5.4-akfmr7b3t57bfs6qan3padb2wnb2i7cl/exe/qcprog.exe_s
PARALLEL:    -DSERIAL
QCMPI:       mpich
#
# qchem directory setting
#
qcrun:       qchem2169492
QCSCRATCH:   .
QCLOCALSCR:  
QCTMPDIR:    .
QCFILEPREF:  ./qchem2169492
QCSAVEDIR:   
workdirs:    ./qchem2169492
workdir0:    ./qchem2169492
partmpdirs =  
#
# parallel setting
#
QCRSH:           ssh
QCMPI:           mpich
QCMPIRUN:        /cm/shared/apps/spack/cpu/opt/spack/linux-centos8-zen2/gcc-10.2.0/qchem-5.4-akfmr7b3t57bfs6qan3padb2wnb2i7cl/bin/mpi/mpirun_qchem
QCMACHINEFILE:   ./qchem2169492/hostfile

#
# env setting
#
exported envs:   QC QCAUX QCSCRATCH QCRUNNAME QCFILEPREF QCPROG QCPROG_S GUIFILE

Running Job 1 of 1 Methylthiophene_Phi_5_Theta_50_Methylthiophene_Hydrogenated_Improper_Alternate.qcin
qchem Methylthiophene_Phi_5_Theta_50_Methylthiophene_Hydrogenated_Improper_Alternate.qcin_2169492.0 ./qchem2169492/ 0
/cm/shared/apps/spack/cpu/opt/spack/linux-centos8-zen2/gcc-10.2.0/qchem-5.4-akfmr7b3t57bfs6qan3padb2wnb2i7cl/exe/qcprog.exe_s Methylthiophene_Phi_5_Theta_50_Methylthiophene_Hydrogenated_Improper_Alternate.qcin_2169492.0 ./qchem2169492/
                  Welcome to Q-Chem
     A Quantum Leap Into The Future Of Chemistry


 Q-Chem 5.4, Q-Chem, Inc., Pleasanton, CA (2021)

 License issued to: University of California, San Diego (site)

 E. Epifanovsky,  A. T. B. Gilbert,  Xintian Feng,  Joonho Lee,  Yuezhi Mao,  
 N. Mardirossian,  P. Pokhilko,  A. White,  M. Wormit,  M. P. Coons,  
 A. L. Dempwolff,  Zhengting Gan,  D. Hait,  P. R. Horn,  L. D. Jacobson,  
 I. Kaliman,  J. Kussmann,  A. W. Lange,  Ka Un Lao,  D. S. Levine,  Jie Liu,  
 S. C. McKenzie,  A. F. Morrison,  K. Nanda,  F. Plasser,  D. R. Rehn,  
 M. L. Vidal,  Zhi-Qiang You,  Ying Zhu,  B. Alam,  B. Albrecht,  
 A. Aldossary,  E. Alguire,  J. H. Andersen,  D. Barton,  K. Begam,  A. Behn,  
 Y. A. Bernard,  E. J. Berquist,  H. Burton,  A. Carreras,  K. Carter-Fenk,  
 R. Chakraborty,  A. D. Chien,  K. D. Closser,  V. Cofer-Shabica,  
 S. Dasgupta,  Jia Deng,  M. de Wergifosse,  M. Diedenhofen,  Hainam Do,  
 S. Ehlert,  Po-Tung Fang,  S. Fatehi,  Qingguo Feng,  J. Gayvert,  
 Qinghui Ge,  G. Gidofalvi,  M. Goldey,  J. Gomes,  C. Gonzalez-Espinoza,  
 S. Gulania,  A. Gunina,  M. W. D. Hanson-Heine,  P. H. P. Harbach,  
 A. W. Hauser,  M. F. Herbst,  M. Hernandez Vera,  M. Hodecker,  
 Z. C. Holden,  S. Houck,  Xunkun Huang,  Kerwin Hui,  B. C. Huynh,  
 M. Ivanov,  Hyunjun Ji,  Hanjie Jiang,  B. Kaduk,  S. Kaehler,  
 K. Khistyaev,  Jaehoon Kim,  P. Klunzinger,  Z. Koczor-Benda,  
 Joong Hoon Koh,  D. Kosenkov,  L. Koulias,  T. Kowalczyk,  C. M. Krauter,  
 K. Kue,  A. Kunitsa,  T. Kus,  A. Landau,  K. V. Lawler,  D. Lefrancois,  
 S. Lehtola,  Rain Li,  Yi-Pei Li,  Jiashu Liang,  M. Liebenthal,  
 Hung-Hsuan Lin,  You-Sheng Lin,  Fenglai Liu,  Kuan-Yu Liu,  
 M. Loipersberger,  A. Luenser,  A. Manjanath,  P. Manohar,  E. Mansoor,  
 S. F. Manzer,  Shan-Ping Mao,  A. V. Marenich,  T. Markovich,  S. Mason,  
 S. A. Maurer,  P. F. McLaughlin,  M. F. S. J. Menger,  J.-M. Mewes,  
 S. A. Mewes,  P. Morgante,  J. W. Mullinax,  T. S. Nguyen-Beck,  
 K. J. Oosterbaan,  G. Paran,  Alexander C. Paul,  Suranjan K. Paul,  
 F. Pavosevic,  Zheng Pei,  S. Prager,  E. I. Proynov,  E. Ramos,  B. Rana,  
 A. E. Rask,  A. Rettig,  R. M. Richard,  F. Rob,  E. Rossomme,  T. Scheele,  
 M. Scheurer,  M. Schneider,  N. Sergueev,  S. M. Sharada,  W. Skomorowski,  
 D. W. Small,  C. J. Stein,  Yu-Chuan Su,  E. J. Sundstrom,  Zhen Tao,  
 J. Thirman,  T. Tsuchimochi,  N. M. Tubman,  S. P. Veccham,  O. Vydrov,  
 J. Wenzel,  J. Witte,  A. Yamada,  Kun Yao,  S. Yeganeh,  S. R. Yost,  
 A. Zech,  Igor Ying Zhang,  Xing Zhang,  Yu Zhang,  D. Zuev,  
 A. Aspuru-Guzik,  A. T. Bell,  N. A. Besley,  K. B. Bravaya,  B. R. Brooks,  
 D. Casanova,  Jeng-Da Chai,  S. Coriani,  C. J. Cramer,  
 A. E. DePrince, III,  R. A. DiStasio Jr.,  A. Dreuw,  B. D. Dunietz,  
 T. R. Furlani,  W. A. Goddard III,  S. Grimme,  S. Hammes-Schiffer,  
 T. Head-Gordon,  W. J. Hehre,  Chao-Ping Hsu,  T.-C. Jagau,  Yousung Jung,  
 A. Klamt,  Jing Kong,  D. S. Lambrecht,  WanZhen Liang,  N. J. Mayhall,  
 C. W. McCurdy,  J. B. Neaton,  C. Ochsenfeld,  J. A. Parkhill,  R. Peverati,  
 V. A. Rassolov,  Yihan Shao,  L. V. Slipchenko,  T. Stauch,  R. P. Steele,  
 J. E. Subotnik,  A. J. W. Thom,  A. Tkatchenko,  D. G. Truhlar,  
 T. Van Voorhis,  T. A. Wesolowski,  K. B. Whaley,  H. L. Woodcock III,  
 P. M. Zimmerman,  S. Faraji,  P. M. W. Gill,  M. Head-Gordon,  
 J. M. Herbert,  A. I. Krylov

 Contributors to earlier versions of Q-Chem not listed above: 
 R. D. Adamson,  B. Austin,  R. Baer,  J. Baker,  G. J. O. Beran,  
 K. Brandhorst,  S. T. Brown,  E. F. C. Byrd,  A. K. Chakraborty,  
 G. K. L. Chan,  Chun-Min Chang,  Yunqing Chen,  C.-L. Cheng,  
 Siu Hung Chien,  D. M. Chipman,  D. L. Crittenden,  H. Dachsel,  
 R. J. Doerksen,  A. D. Dutoi,  R. G. Edgar,  J. Fosso-Tande,  
 L. Fusti-Molnar,  D. Ghosh,  A. Ghysels,  A. Golubeva-Zadorozhnaya,  
 J. Gonthier,  M. S. Gordon,  S. R. Gwaltney,  G. Hawkins,  J. E. Herr,  
 A. Heyden,  S. Hirata,  E. G. Hohenstein,  G. Kedziora,  F. J. Keil,  
 C. Kelley,  Jihan Kim,  R. A. King,  R. Z. Khaliullin,  P. P. Korambath,  
 W. Kurlancheek,  A. Laurent,  A. M. Lee,  M. S. Lee,  S. V. Levchenko,  
 Ching Yeh Lin,  D. Liotard,  E. Livshits,  R. C. Lochan,  I. Lotan,  
 L. A. Martinez-Martinez,  P. E. Maslen,  N. Nair,  D. P. O'Neill,  
 D. Neuhauser,  E. Neuscamman,  C. M. Oana,  R. Olivares-Amaya,  R. Olson,  
 T. M. Perrine,  B. Peters,  P. A. Pieniazek,  A. Prociuk,  Y. M. Rhee,  
 J. Ritchie,  M. A. Rohrdanz,  E. Rosta,  N. J. Russ,  H. F. Schaefer III,  
 M. W. Schmidt,  N. E. Schultz,  S. Sharma,  N. Shenvi,  C. D. Sherrill,  
 A. C. Simmonett,  A. Sodt,  T. Stein,  D. Stuck,  K. S. Thanthiriwatte,  
 V. Vanovschi,  L. Vogt,  Tao Wang,  A. Warshel,  M. A. Watson,  
 C. F. Williams,  Q. Wu,  X. Xu,  Jun Yang,  W. Zhang,  Yan Zhao

 Please cite Q-Chem as follows:
 Y. Shao et al., Mol. Phys. 113, 184-215 (2015)
 DOI: 10.1080/00268976.2014.952696

 Q-Chem 5.4.0 for Intel X86 EM64T Linux

 Parts of Q-Chem use Armadillo 9.800.1 (Horizon Scraper).
 http://arma.sourceforge.net/

 Q-Chem begins on Sun Jul 10 09:58:31 2022  

 Host: 
0

     Scratch files written to ./qchem2169492//
 May1621 |scratch|qcdevops|jenkins|workspace|build_RNUM    
 Processing $rem in /cm/shared/apps/spack/cpu/opt/spack/linux-centos8-zen2/gcc-10.2.0/qchem-5.4-akfmr7b3t57bfs6qan3padb2wnb2i7cl/config/preferences:
 Processing $rem in /home/theleonzhang/.qchemrc:
 Symmetry turned off for PCM/SM12/SMD calculation
 Core orbitals will be frozen

 Checking the input file for inconsistencies... 	...done.

--------------------------------------------------------------
User input:
--------------------------------------------------------------
$molecule
0 1
C	-0.055587	-0.573729	0.018379
C	0.019713	0.286571	1.117779
C	0.140313	1.665271	0.795079
H	-0.012387	-0.080829	2.154479
C	0.159613	1.885071	-0.594121
S	0.026613	0.365071	-1.468421
C	0.235213	2.748871	1.832979
H	0.198113	2.324771	2.855079
H	-0.596787	3.478371	1.744579
H	1.181213	3.322871	1.744579
C	-0.055587	-2.014429	0.018379
H	-0.749687	-2.014129	-0.809021
H	0.572013	-2.718229	-0.508121
H	-0.781087	-2.533329	0.627179
H	0.242313	2.830671	-1.143221
$end

$rem
JOBTYPE		SP
EXCHANGE	HF
CORRELATION	pRIMP2
BASIS		cc-pvtz
METHOD		rimp2
AUX_BASIS	rimp2-cc-pvtz
SOLVENT_METHOD	PCM
PURECART	11111
SYMMETRY	false
MEM_TOTAL	110000
SCF_CONVERGENCE = 6
THRESH=10
$end



$solvent
dielectric 4.90
$end
--------------------------------------------------------------
 ----------------------------------------------------------------
             Standard Nuclear Orientation (Angstroms)
    I     Atom           X                Y                Z
 ----------------------------------------------------------------
    1      C      -0.0555870000    -0.5737290000     0.0183790000
    2      C       0.0197130000     0.2865710000     1.1177790000
    3      C       0.1403130000     1.6652710000     0.7950790000
    4      H      -0.0123870000    -0.0808290000     2.1544790000
    5      C       0.1596130000     1.8850710000    -0.5941210000
    6      S       0.0266130000     0.3650710000    -1.4684210000
    7      C       0.2352130000     2.7488710000     1.8329790000
    8      H       0.1981130000     2.3247710000     2.8550790000
    9      H      -0.5967870000     3.4783710000     1.7445790000
   10      H       1.1812130000     3.3228710000     1.7445790000
   11      C      -0.0555870000    -2.0144290000     0.0183790000
   12      H      -0.7496870000    -2.0141290000    -0.8090210000
   13      H       0.5720130000    -2.7182290000    -0.5081210000
   14      H      -0.7810870000    -2.5333290000     0.6271790000
   15      H       0.2423130000     2.8306710000    -1.1432210000
 ----------------------------------------------------------------
 Nuclear Repulsion Energy =         344.56873837 hartrees
 There are       30 alpha and       30 beta electrons

 Q-Chem warning in module forms1/BasisType.C, line 2236:

 You are not using the predefined 5D/6D in this basis set.

 Requested basis set is cc-pVTZ
 There are 120 shells and 326 basis functions

 Total QAlloc Memory Limit 110000 MB
 Mega-Array Size       188 MB
 MEM_STATIC part       192 MB
 Discretize the solute cavity surface with Lebedev spheres
	Using 110 Lebedev grid points for each H atom
	Using 194 Lebedev grid points for other atoms
	Atomic van der Waals radii will be scaled by 1.20
 Remove points where switching function is < 1.0e-08
 Keep 1071 surface tesserae and discard 1167 interior tesserae
 Molecular Surface Area = 158.798 Angst**2

                       Distance Matrix (Angstroms)
             C (  1)   C (  2)   C (  3)   H (  4)   C (  5)   S (  6)
   C (  2)  1.398022
   C (  3)  2.377974  1.421089
   H (  4)  2.192656  1.100345  2.218141
   C (  5)  2.543062  2.346354  1.406613  3.383659
   S (  6)  1.760306  2.587400  2.612830  3.650445  1.758548
   C (  7)  3.796974  2.573106  1.503473  2.858648  2.577340  4.077408
   H (  8)  4.063562  2.684082  2.163765  2.514371  3.477326  4.749999
   H (  9)  4.437587  3.310670  2.175362  3.630075  2.929209  4.517149
   H ( 10)  4.437672  3.310752  2.175468  3.630134  2.929241  4.517195
   C ( 11)  1.440700  2.551265  3.765877  2.881597  3.953172  2.807018
   H ( 12)  1.800310  3.098024  4.111353  3.614359  4.009585  2.588058
   H ( 13)  2.295640  3.460839  4.593448  3.792999  4.622536  3.275115
   H ( 14)  2.176470  2.972172  4.301792  2.989699  4.679610  3.666693
   H ( 15)  3.609432  3.410882  2.263972  4.406419  1.096590  2.496290
             C (  7)   H (  8)   H (  9)   H ( 10)   C ( 11)   H ( 12)
   H (  8)  1.107215
   H (  9)  1.110049  1.787699
   H ( 10)  1.110048  1.787708  1.784787
   C ( 11)  5.105523  5.190365  5.783037  5.744233
   H ( 12)  5.535012  5.757604  6.059027  6.223569  1.079984
   H ( 13)  5.956792  6.073118  6.696163  6.476162  1.080009  1.527478
   H ( 14)  5.512573  5.433554  6.117441  6.276486  1.079928  1.527490
   H ( 15)  2.977332  4.030421  3.076198  3.076229  4.991298  4.956596
             H ( 13)   H ( 14)
   H ( 14)  1.775943
   H ( 15)  5.594850  5.740571
 
 Requested basis set is rimp2-cc-pVTZ
 There are 250 shells and 848 basis functions
 A cutoff of  1.0D-10 yielded   6165 shell pairs
 There are     45143 function pairs (     58042 Cartesian)
 Smallest overlap matrix eigenvalue = 9.21E-05

 Scale SEOQF with 1.000000e+00/1.000000e-01/1.000000e-01

 Standard Electronic Orientation quadrupole field applied
 Nucleus-field energy     =     0.0000000037 hartrees
 Guess from superposition of atomic densities
 Warning:  Energy on first SCF cycle will be non-variational
 SAD guess density has 60.000000 electrons

 -----------------------------------------------------------------------
  General SCF calculation program by
  Eric Jon Sundstrom, Paul Horn, Yuezhi Mao, Dmitri Zuev, Alec White,
  David Stuck, Shaama M.S., Shane Yost, Joonho Lee, David Small,
  Daniel Levine, Susi Lehtola, Hugh Burton, Evgeny Epifanovsky,
  Bang C. Huynh
 -----------------------------------------------------------------------
 Hartree-Fock
 A restricted SCF calculation will be
 performed using DIIS
 SCF converges when DIIS error is below 1.0e-06
 ---------------------------------------
  Cycle       Energy         DIIS error
 ---------------------------------------
    1    -632.1016174409      2.92e-02  
    2    -629.3415187328      1.94e-03  
    3    -629.4118991965      6.87e-04  
    4    -629.4194690298      3.49e-04  
    5    -629.4216210095      6.40e-05  
    6    -629.4217578298      2.63e-05  
    7    -629.4217920993      1.16e-05  
    8    -629.4218015356      5.07e-06  
    9    -629.4218029829      1.70e-06  
   10    -629.4218031595      5.86e-07  Convergence criterion met
 ---------------------------------------
 SCF time:   CPU 143.94s  wall 144.00s 

************** Final PCM Free Energy Summary **************
 G_electrostatic  =      -0.00532339 hartree =      -3.34047977 kcal/mol
 G_cavitation     =       0.00000000 hartree =       0.00000000 kcal/mol
 G_dispersion     =       0.00000000 hartree =       0.00000000 kcal/mol
 G_repulsion      =       0.00000000 hartree =       0.00000000 kcal/mol
 --------------------------------------------------
 Non-electrostatic Free Energy =       0.00000000 hartree =       0.00000000 kcal/mol
 Total                         =      -0.00532339 hartree =      -3.34047977 kcal/mol
 --------------------------------------------------
 SCF Energy (H0 + V/2)                       =    -629.42180316 
 Solute Internal Energy (H0)                 =    -629.41647977 
 Total Free Energy (H0 + V/2 + non-elec)     =    -629.42180316 hartree
                                             = -394968.14273648 kcal/mol
***********************************************************

 SCF   energy in the final basis set =     -629.4218031595
 Total energy in the final basis set =     -629.4218031595


 --------------------------------------------------------------
  Generalized many-body perturbation theory program
  by Joonho Lee, Fazle Rob, Xintian Feng, Evgeny Epifanovsky

 No regularization used 
 (reg. param. = 0.0000e+00)
  (P|Q)^-1/2 Time:  CPU 0.51 s  wall 0.51 s

 In RI-MP2 calculation: 
 # of frozen core orbitals: 11

 Components of the RIMP2 correlation energy:
        aaaa    correlation energy =        -0.1453641996 a.u.
        abab    correlation energy =        -0.8861458775 a.u.
        bbbb    correlation energy =        -0.1453641996 a.u.
        non-Brillouin singles      =        -0.0000000000 a.u.
        total same-spin energy     =        -0.2907283992 a.u.
        total opposite-spin energy =        -0.8861458775 a.u.

 Total  RIMP2   correlation energy =        -1.1768742767 a.u.
        RIMP2         total energy =      -630.5986774362 a.u.

 RI-MP2 Energy Time:  CPU 12.62 s  wall 12.65 s
 
 --------------------------------------------------------------
 
                    Orbital Energies (a.u.)
 --------------------------------------------------------------
 
 Alpha MOs
 -- Occupied --
-91.9789 -11.2787 -11.2551 -11.2470 -11.2278 -11.2267 -11.2179  -8.9788
 -6.6598  -6.6593  -6.6586  -1.1606  -1.0553  -0.9960  -0.9452  -0.8821
 -0.7466  -0.7186  -0.6476  -0.5910  -0.5755  -0.5680  -0.5513  -0.5474
 -0.5089  -0.4876  -0.4648  -0.4503  -0.3388  -0.2972
 -- Virtual --
  0.1059   0.1430   0.1492   0.1752   0.1882   0.1938   0.2019   0.2257
  0.2352   0.2416   0.2494   0.2632   0.2916   0.3224   0.3387   0.3502
  0.3827   0.3949   0.4046   0.4166   0.4364   0.4658   0.4708   0.4871
  0.4955   0.4989   0.5248   0.5315   0.5452   0.5598   0.5772   0.5925
  0.5984   0.6064   0.6115   0.6170   0.6296   0.6405   0.6466   0.6502
  0.6576   0.6676   0.6857   0.7153   0.7247   0.7435   0.7677   0.7881
  0.8009   0.8301   0.8417   0.8576   0.8755   0.9005   0.9232   0.9276
  0.9394   0.9653   0.9884   1.0106   1.0361   1.0424   1.0623   1.0686
  1.0803   1.0859   1.1054   1.1361   1.1646   1.1878   1.2021   1.2153
  1.2243   1.2248   1.2557   1.2605   1.2702   1.2964   1.3065   1.3265
  1.3574   1.3880   1.3993   1.4130   1.4215   1.4316   1.4546   1.4825
  1.5038   1.5122   1.5353   1.5474   1.5588   1.5623   1.5748   1.5812
  1.6139   1.6239   1.6506   1.6757   1.6867   1.6998   1.7161   1.7446
  1.7457   1.7886   1.8216   1.8324   1.8922   1.9044   1.9131   1.9672
  1.9991   2.0398   2.0931   2.1417   2.1853   2.1984   2.2179   2.2418
  2.2608   2.3008   2.3592   2.4172   2.4563   2.5008   2.5212   2.5507
  2.5712   2.6074   2.6272   2.6646   2.6812   2.6918   2.7135   2.7349
  2.7470   2.7604   2.7676   2.7954   2.8133   2.8490   2.8539   2.8789
  2.9101   2.9343   2.9704   2.9733   2.9914   3.0292   3.0422   3.0502
  3.0748   3.0945   3.1143   3.1350   3.1545   3.1602   3.1881   3.1893
  3.2256   3.2472   3.2670   3.2811   3.2908   3.3011   3.3088   3.3227
  3.3464   3.3640   3.3757   3.3829   3.3944   3.4250   3.4272   3.4343
  3.4496   3.4875   3.4913   3.5046   3.5154   3.5226   3.5321   3.5662
  3.5800   3.5887   3.5909   3.6190   3.6299   3.6322   3.6606   3.6863
  3.6908   3.7116   3.7241   3.7506   3.7612   3.7795   3.7907   3.8042
  3.8133   3.8371   3.8485   3.8868   3.9100   3.9255   3.9291   3.9505
  3.9709   3.9851   4.0104   4.0206   4.0320   4.0566   4.0935   4.1073
  4.1373   4.1546   4.1570   4.1822   4.2034   4.2221   4.2317   4.2501
  4.2814   4.2887   4.3165   4.3406   4.3461   4.3655   4.3789   4.4028
  4.4035   4.4287   4.4445   4.4551   4.4653   4.4977   4.5323   4.5559
  4.6072   4.6169   4.6274   4.6471   4.7164   4.7491   4.7555   4.7898
  4.7966   4.8247   4.8557   4.9085   4.9154   4.9897   5.0942   5.0988
  5.1157   5.1345   5.1826   5.2006   5.2559   5.2747   5.2867   5.3213
  5.3642   5.4014   5.4125   5.4383   5.4621   5.4960   5.5493   5.5641
  5.5979   5.6125   5.6227   5.6972   5.7171   5.8209   5.8276   5.8847
  5.9334   5.9734   6.1073   6.1419   6.2274   6.2507   6.3107   6.4146
  6.4263   6.5127   9.2384  11.3856  12.9558  13.8979  14.1804  14.4788
 --------------------------------------------------------------
 
          Ground-State Mulliken Net Atomic Charges

     Atom                 Charge (a.u.)
  ----------------------------------------
      1 C                     0.044973
      2 C                    -0.264671
      3 C                     0.034043
      4 H                     0.181143
      5 C                    -0.257982
      6 S                    -0.005662
      7 C                    -0.273664
      8 H                     0.101528
      9 H                     0.106996
     10 H                     0.107169
     11 C                    -0.368607
     12 H                     0.119276
     13 H                     0.144941
     14 H                     0.136298
     15 H                     0.194218
  ----------------------------------------
  Sum of atomic charges =     0.000000

 -----------------------------------------------------------------
                    Cartesian Multipole Moments
 -----------------------------------------------------------------
    Charge (ESU x 10^10)
                -0.0000
    Dipole Moment (Debye)
         X      -0.3216      Y      -0.2205      Z       0.9712
       Tot       1.0466
    Quadrupole Moments (Debye-Ang)
        XX     -53.8912     XY       1.6625     YY     -42.0510
        XZ      -0.2850     YZ       1.3632     ZZ     -48.7310
    Octopole Moments (Debye-Ang^2)
       XXX      -9.1142    XXY     -31.8984    XYY      -2.6423
       YYY     -79.7051    XXZ      -1.5902    XYZ       0.9493
       YYZ      -7.2106    XZZ      -2.4919    YZZ     -24.3205
       ZZZ       1.8719
    Hexadecapole Moments (Debye-Ang^3)
      XXXX     -83.6779   XXXY     -30.4757   XXYY    -159.2554
      XYYY     -23.5342   YYYY    -808.0144   XXXZ      -7.9543
      XXYZ     -31.4670   XYYZ      -7.4810   YYYZ     -99.6795
      XXZZ    -101.9588   XYZZ      -8.3177   YYZZ    -214.2127
      XZZZ      -8.5158   YZZZ    -103.4436   ZZZZ    -483.3034
 -----------------------------------------------------------------
 Total job time:  158.02s(wall), 156.93s(cpu) 
 Sun Jul 10 10:01:09 2022

        *************************************************************
        *                                                           *
        *  Thank you very much for using Q-Chem.  Have a nice day.  *
        *                                                           *
        *************************************************************


remove work dirs ./qchem2169492.0 -- ./qchem2169492.-1
rm -rf ./qchem2169492
