You are running Q-Chem version: 5.4.0

#
# job setting
#
local host:  exp-1-06
current dir: /expanse/lustre/scratch/theleonzhang/temp_project/Hydrogenated_Impropers_Test
input file:  Methylthiophene_Phi_0_Theta_220_Methylthiophene_Hydrogenated_Improper_Alternate.qcin
output file: 
nprocs     : 0
nthreads   : 1
#
# qchem installation setting
#
QC:          /cm/shared/apps/spack/cpu/opt/spack/linux-centos8-zen2/gcc-10.2.0/qchem-5.4-akfmr7b3t57bfs6qan3padb2wnb2i7cl
QCAUX:       /cm/shared/apps/spack/cpu/opt/spack/linux-centos8-zen2/gcc-10.2.0/qchem-5.4-akfmr7b3t57bfs6qan3padb2wnb2i7cl/qcaux
QCPROG:      /cm/shared/apps/spack/cpu/opt/spack/linux-centos8-zen2/gcc-10.2.0/qchem-5.4-akfmr7b3t57bfs6qan3padb2wnb2i7cl/exe/qcprog.exe_s
QCPROG_S:    /cm/shared/apps/spack/cpu/opt/spack/linux-centos8-zen2/gcc-10.2.0/qchem-5.4-akfmr7b3t57bfs6qan3padb2wnb2i7cl/exe/qcprog.exe_s
PARALLEL:    -DSERIAL
QCMPI:       mpich
#
# qchem directory setting
#
qcrun:       qchem1883598
QCSCRATCH:   .
QCLOCALSCR:  
QCTMPDIR:    .
QCFILEPREF:  ./qchem1883598
QCSAVEDIR:   
workdirs:    ./qchem1883598
workdir0:    ./qchem1883598
partmpdirs =  
#
# parallel setting
#
QCRSH:           ssh
QCMPI:           mpich
QCMPIRUN:        /cm/shared/apps/spack/cpu/opt/spack/linux-centos8-zen2/gcc-10.2.0/qchem-5.4-akfmr7b3t57bfs6qan3padb2wnb2i7cl/bin/mpi/mpirun_qchem
QCMACHINEFILE:   ./qchem1883598/hostfile

#
# env setting
#
exported envs:   QC QCAUX QCSCRATCH QCRUNNAME QCFILEPREF QCPROG QCPROG_S GUIFILE

Running Job 1 of 1 Methylthiophene_Phi_0_Theta_220_Methylthiophene_Hydrogenated_Improper_Alternate.qcin
qchem Methylthiophene_Phi_0_Theta_220_Methylthiophene_Hydrogenated_Improper_Alternate.qcin_1883598.0 ./qchem1883598/ 0
/cm/shared/apps/spack/cpu/opt/spack/linux-centos8-zen2/gcc-10.2.0/qchem-5.4-akfmr7b3t57bfs6qan3padb2wnb2i7cl/exe/qcprog.exe_s Methylthiophene_Phi_0_Theta_220_Methylthiophene_Hydrogenated_Improper_Alternate.qcin_1883598.0 ./qchem1883598/
                  Welcome to Q-Chem
     A Quantum Leap Into The Future Of Chemistry


 Q-Chem 5.4, Q-Chem, Inc., Pleasanton, CA (2021)

 License issued to: University of California, San Diego (site)

 E. Epifanovsky,  A. T. B. Gilbert,  Xintian Feng,  Joonho Lee,  Yuezhi Mao,  
 N. Mardirossian,  P. Pokhilko,  A. White,  M. Wormit,  M. P. Coons,  
 A. L. Dempwolff,  Zhengting Gan,  D. Hait,  P. R. Horn,  L. D. Jacobson,  
 I. Kaliman,  J. Kussmann,  A. W. Lange,  Ka Un Lao,  D. S. Levine,  Jie Liu,  
 S. C. McKenzie,  A. F. Morrison,  K. Nanda,  F. Plasser,  D. R. Rehn,  
 M. L. Vidal,  Zhi-Qiang You,  Ying Zhu,  B. Alam,  B. Albrecht,  
 A. Aldossary,  E. Alguire,  J. H. Andersen,  D. Barton,  K. Begam,  A. Behn,  
 Y. A. Bernard,  E. J. Berquist,  H. Burton,  A. Carreras,  K. Carter-Fenk,  
 R. Chakraborty,  A. D. Chien,  K. D. Closser,  V. Cofer-Shabica,  
 S. Dasgupta,  Jia Deng,  M. de Wergifosse,  M. Diedenhofen,  Hainam Do,  
 S. Ehlert,  Po-Tung Fang,  S. Fatehi,  Qingguo Feng,  J. Gayvert,  
 Qinghui Ge,  G. Gidofalvi,  M. Goldey,  J. Gomes,  C. Gonzalez-Espinoza,  
 S. Gulania,  A. Gunina,  M. W. D. Hanson-Heine,  P. H. P. Harbach,  
 A. W. Hauser,  M. F. Herbst,  M. Hernandez Vera,  M. Hodecker,  
 Z. C. Holden,  S. Houck,  Xunkun Huang,  Kerwin Hui,  B. C. Huynh,  
 M. Ivanov,  Hyunjun Ji,  Hanjie Jiang,  B. Kaduk,  S. Kaehler,  
 K. Khistyaev,  Jaehoon Kim,  P. Klunzinger,  Z. Koczor-Benda,  
 Joong Hoon Koh,  D. Kosenkov,  L. Koulias,  T. Kowalczyk,  C. M. Krauter,  
 K. Kue,  A. Kunitsa,  T. Kus,  A. Landau,  K. V. Lawler,  D. Lefrancois,  
 S. Lehtola,  Rain Li,  Yi-Pei Li,  Jiashu Liang,  M. Liebenthal,  
 Hung-Hsuan Lin,  You-Sheng Lin,  Fenglai Liu,  Kuan-Yu Liu,  
 M. Loipersberger,  A. Luenser,  A. Manjanath,  P. Manohar,  E. Mansoor,  
 S. F. Manzer,  Shan-Ping Mao,  A. V. Marenich,  T. Markovich,  S. Mason,  
 S. A. Maurer,  P. F. McLaughlin,  M. F. S. J. Menger,  J.-M. Mewes,  
 S. A. Mewes,  P. Morgante,  J. W. Mullinax,  T. S. Nguyen-Beck,  
 K. J. Oosterbaan,  G. Paran,  Alexander C. Paul,  Suranjan K. Paul,  
 F. Pavosevic,  Zheng Pei,  S. Prager,  E. I. Proynov,  E. Ramos,  B. Rana,  
 A. E. Rask,  A. Rettig,  R. M. Richard,  F. Rob,  E. Rossomme,  T. Scheele,  
 M. Scheurer,  M. Schneider,  N. Sergueev,  S. M. Sharada,  W. Skomorowski,  
 D. W. Small,  C. J. Stein,  Yu-Chuan Su,  E. J. Sundstrom,  Zhen Tao,  
 J. Thirman,  T. Tsuchimochi,  N. M. Tubman,  S. P. Veccham,  O. Vydrov,  
 J. Wenzel,  J. Witte,  A. Yamada,  Kun Yao,  S. Yeganeh,  S. R. Yost,  
 A. Zech,  Igor Ying Zhang,  Xing Zhang,  Yu Zhang,  D. Zuev,  
 A. Aspuru-Guzik,  A. T. Bell,  N. A. Besley,  K. B. Bravaya,  B. R. Brooks,  
 D. Casanova,  Jeng-Da Chai,  S. Coriani,  C. J. Cramer,  
 A. E. DePrince, III,  R. A. DiStasio Jr.,  A. Dreuw,  B. D. Dunietz,  
 T. R. Furlani,  W. A. Goddard III,  S. Grimme,  S. Hammes-Schiffer,  
 T. Head-Gordon,  W. J. Hehre,  Chao-Ping Hsu,  T.-C. Jagau,  Yousung Jung,  
 A. Klamt,  Jing Kong,  D. S. Lambrecht,  WanZhen Liang,  N. J. Mayhall,  
 C. W. McCurdy,  J. B. Neaton,  C. Ochsenfeld,  J. A. Parkhill,  R. Peverati,  
 V. A. Rassolov,  Yihan Shao,  L. V. Slipchenko,  T. Stauch,  R. P. Steele,  
 J. E. Subotnik,  A. J. W. Thom,  A. Tkatchenko,  D. G. Truhlar,  
 T. Van Voorhis,  T. A. Wesolowski,  K. B. Whaley,  H. L. Woodcock III,  
 P. M. Zimmerman,  S. Faraji,  P. M. W. Gill,  M. Head-Gordon,  
 J. M. Herbert,  A. I. Krylov

 Contributors to earlier versions of Q-Chem not listed above: 
 R. D. Adamson,  B. Austin,  R. Baer,  J. Baker,  G. J. O. Beran,  
 K. Brandhorst,  S. T. Brown,  E. F. C. Byrd,  A. K. Chakraborty,  
 G. K. L. Chan,  Chun-Min Chang,  Yunqing Chen,  C.-L. Cheng,  
 Siu Hung Chien,  D. M. Chipman,  D. L. Crittenden,  H. Dachsel,  
 R. J. Doerksen,  A. D. Dutoi,  R. G. Edgar,  J. Fosso-Tande,  
 L. Fusti-Molnar,  D. Ghosh,  A. Ghysels,  A. Golubeva-Zadorozhnaya,  
 J. Gonthier,  M. S. Gordon,  S. R. Gwaltney,  G. Hawkins,  J. E. Herr,  
 A. Heyden,  S. Hirata,  E. G. Hohenstein,  G. Kedziora,  F. J. Keil,  
 C. Kelley,  Jihan Kim,  R. A. King,  R. Z. Khaliullin,  P. P. Korambath,  
 W. Kurlancheek,  A. Laurent,  A. M. Lee,  M. S. Lee,  S. V. Levchenko,  
 Ching Yeh Lin,  D. Liotard,  E. Livshits,  R. C. Lochan,  I. Lotan,  
 L. A. Martinez-Martinez,  P. E. Maslen,  N. Nair,  D. P. O'Neill,  
 D. Neuhauser,  E. Neuscamman,  C. M. Oana,  R. Olivares-Amaya,  R. Olson,  
 T. M. Perrine,  B. Peters,  P. A. Pieniazek,  A. Prociuk,  Y. M. Rhee,  
 J. Ritchie,  M. A. Rohrdanz,  E. Rosta,  N. J. Russ,  H. F. Schaefer III,  
 M. W. Schmidt,  N. E. Schultz,  S. Sharma,  N. Shenvi,  C. D. Sherrill,  
 A. C. Simmonett,  A. Sodt,  T. Stein,  D. Stuck,  K. S. Thanthiriwatte,  
 V. Vanovschi,  L. Vogt,  Tao Wang,  A. Warshel,  M. A. Watson,  
 C. F. Williams,  Q. Wu,  X. Xu,  Jun Yang,  W. Zhang,  Yan Zhao

 Please cite Q-Chem as follows:
 Y. Shao et al., Mol. Phys. 113, 184-215 (2015)
 DOI: 10.1080/00268976.2014.952696

 Q-Chem 5.4.0 for Intel X86 EM64T Linux

 Parts of Q-Chem use Armadillo 9.800.1 (Horizon Scraper).
 http://arma.sourceforge.net/

 Q-Chem begins on Sun Jul 10 10:10:04 2022  

 Host: 
0

     Scratch files written to ./qchem1883598//
 May1621 |scratch|qcdevops|jenkins|workspace|build_RNUM    
 Processing $rem in /cm/shared/apps/spack/cpu/opt/spack/linux-centos8-zen2/gcc-10.2.0/qchem-5.4-akfmr7b3t57bfs6qan3padb2wnb2i7cl/config/preferences:
 Processing $rem in /home/theleonzhang/.qchemrc:
 Symmetry turned off for PCM/SM12/SMD calculation
 Core orbitals will be frozen

 Checking the input file for inconsistencies... 	...done.

--------------------------------------------------------------
User input:
--------------------------------------------------------------
$molecule
0 1
C	0.003329	-0.576309	0.018592
C	0.003329	0.287291	1.117992
C	0.003429	1.671191	0.795292
H	0.003329	-0.081509	2.154692
C	0.003429	1.891891	-0.593908
S	0.003329	0.366091	-1.468208
C	0.003429	2.758991	1.833192
H	0.003429	2.333291	2.855292
H	-0.888971	3.413291	1.744792
H	0.895829	3.413191	1.744792
C	0.003329	-2.017009	0.018592
H	-0.823971	-2.017209	-0.675708
H	-0.523271	-2.720809	0.646092
H	0.612129	-2.535909	-0.707008
H	0.003429	2.841091	-1.143008
$end

$rem
JOBTYPE		SP
EXCHANGE	HF
CORRELATION	pRIMP2
BASIS		cc-pvtz
METHOD		rimp2
AUX_BASIS	rimp2-cc-pvtz
SOLVENT_METHOD	PCM
PURECART	11111
SYMMETRY	false
MEM_TOTAL	110000
SCF_CONVERGENCE = 6
THRESH=10
$end



$solvent
dielectric 4.90
$end
--------------------------------------------------------------
 ----------------------------------------------------------------
             Standard Nuclear Orientation (Angstroms)
    I     Atom           X                Y                Z
 ----------------------------------------------------------------
    1      C       0.0033290000    -0.5763090000     0.0185920000
    2      C       0.0033290000     0.2872910000     1.1179920000
    3      C       0.0034290000     1.6711910000     0.7952920000
    4      H       0.0033290000    -0.0815090000     2.1546920000
    5      C       0.0034290000     1.8918910000    -0.5939080000
    6      S       0.0033290000     0.3660910000    -1.4682080000
    7      C       0.0034290000     2.7589910000     1.8331920000
    8      H       0.0034290000     2.3332910000     2.8552920000
    9      H      -0.8889710000     3.4132910000     1.7447920000
   10      H       0.8958290000     3.4131910000     1.7447920000
   11      C       0.0033290000    -2.0170090000     0.0185920000
   12      H      -0.8239710000    -2.0172090000    -0.6757080000
   13      H      -0.5232710000    -2.7208090000     0.6460920000
   14      H       0.6121290000    -2.5359090000    -0.7070080000
   15      H       0.0034290000     2.8410910000    -1.1430080000
 ----------------------------------------------------------------
 Nuclear Repulsion Energy =         344.58319445 hartrees
 There are       30 alpha and       30 beta electrons

 Q-Chem warning in module forms1/BasisType.C, line 2236:

 You are not using the predefined 5D/6D in this basis set.

 Requested basis set is cc-pVTZ
 There are 120 shells and 326 basis functions

 Total QAlloc Memory Limit 110000 MB
 Mega-Array Size       188 MB
 MEM_STATIC part       192 MB
 Discretize the solute cavity surface with Lebedev spheres
	Using 110 Lebedev grid points for each H atom
	Using 194 Lebedev grid points for other atoms
	Atomic van der Waals radii will be scaled by 1.20
 Remove points where switching function is < 1.0e-08
 Keep 1065 surface tesserae and discard 1173 interior tesserae
 Molecular Surface Area = 159.416 Angst**2

                       Distance Matrix (Angstroms)
             C (  1)   C (  2)   C (  3)   H (  4)   C (  5)   S (  6)
   C (  2)  1.398029
   C (  3)  2.377923  1.421026
   H (  4)  2.192658  1.100346  2.218091
   C (  5)  2.543063  2.346347  1.406622  3.383653
   S (  6)  1.760310  2.587400  2.612799  3.650445  1.758541
   C (  7)  3.796972  2.573094  1.503511  2.858636  2.577339  4.077403
   H (  8)  4.063575  2.684088  2.163788  2.514379  3.477329  4.750003
   H (  9)  4.437665  3.310733  2.175509  3.630130  2.929258  4.517189
   H ( 10)  4.437616  3.310693  2.175429  3.630083  2.929206  4.517161
   C ( 11)  1.440700  2.553131  3.769096  2.882548  3.956596  2.808868
   H ( 12)  1.800742  3.035211  4.056196  3.527396  3.996542  2.644353
   H ( 13)  2.295636  3.090091  4.425984  3.085302  4.805415  3.778429
   H ( 14)  2.176503  3.416390  4.508560  3.818906  4.470875  3.061318
   H ( 15)  3.609423  3.410867  2.263995  4.406406  1.096582  2.496273
             C (  7)   H (  8)   H (  9)   H ( 10)   C ( 11)   H ( 12)
   H (  8)  1.107208
   H (  9)  1.110090  1.787733
   H ( 10)  1.110032  1.787672  1.784800
   C ( 11)  5.109105  5.193455  5.767506  5.767443
   H ( 12)  5.458137  5.663868  5.945870  6.189166  1.080036
   H ( 13)  5.631592  5.540930  6.242440  6.391161  1.079999  1.527295
   H ( 14)  5.904159  6.063795  6.607390  6.440776  1.079995  1.527224
   H ( 15)  2.977332  4.030417  3.076228  3.076210  4.995043  4.950357
             H ( 13)   H ( 14)
   H ( 14)  1.776007
   H ( 15)  5.866261  5.428880
 
 Requested basis set is rimp2-cc-pVTZ
 There are 250 shells and 848 basis functions
 A cutoff of  1.0D-10 yielded   6163 shell pairs
 There are     45119 function pairs (     58020 Cartesian)
 Smallest overlap matrix eigenvalue = 8.89E-05

 Scale SEOQF with 1.000000e+00/1.000000e-01/1.000000e-01

 Standard Electronic Orientation quadrupole field applied
 Nucleus-field energy     =     0.0000000034 hartrees
 Guess from superposition of atomic densities
 Warning:  Energy on first SCF cycle will be non-variational
 SAD guess density has 60.000000 electrons

 -----------------------------------------------------------------------
  General SCF calculation program by
  Eric Jon Sundstrom, Paul Horn, Yuezhi Mao, Dmitri Zuev, Alec White,
  David Stuck, Shaama M.S., Shane Yost, Joonho Lee, David Small,
  Daniel Levine, Susi Lehtola, Hugh Burton, Evgeny Epifanovsky,
  Bang C. Huynh
 -----------------------------------------------------------------------
 Hartree-Fock
 A restricted SCF calculation will be
 performed using DIIS
 SCF converges when DIIS error is below 1.0e-06
 ---------------------------------------
  Cycle       Energy         DIIS error
 ---------------------------------------
    1    -632.1000075188      2.92e-02  
    2    -629.3421292999      1.95e-03  
    3    -629.4127519401      7.06e-04  
    4    -629.4205372767      3.58e-04  
    5    -629.4228019617      6.38e-05  
    6    -629.4229400659      2.65e-05  
    7    -629.4229746716      1.15e-05  
    8    -629.4229841810      5.15e-06  
    9    -629.4229856410      1.70e-06  
   10    -629.4229858221      6.49e-07  Convergence criterion met
 ---------------------------------------
 SCF time:   CPU 144.09s  wall 146.00s 

************** Final PCM Free Energy Summary **************
 G_electrostatic  =      -0.00549746 hartree =      -3.44970817 kcal/mol
 G_cavitation     =       0.00000000 hartree =       0.00000000 kcal/mol
 G_dispersion     =       0.00000000 hartree =       0.00000000 kcal/mol
 G_repulsion      =       0.00000000 hartree =       0.00000000 kcal/mol
 --------------------------------------------------
 Non-electrostatic Free Energy =       0.00000000 hartree =       0.00000000 kcal/mol
 Total                         =      -0.00549746 hartree =      -3.44970817 kcal/mol
 --------------------------------------------------
 SCF Energy (H0 + V/2)                       =    -629.42298582 
 Solute Internal Energy (H0)                 =    -629.41748836 
 Total Free Energy (H0 + V/2 + non-elec)     =    -629.42298582 hartree
                                             = -394968.88486847 kcal/mol
***********************************************************

 SCF   energy in the final basis set =     -629.4229858221
 Total energy in the final basis set =     -629.4229858221


 --------------------------------------------------------------
  Generalized many-body perturbation theory program
  by Joonho Lee, Fazle Rob, Xintian Feng, Evgeny Epifanovsky

 No regularization used 
 (reg. param. = 0.0000e+00)
  (P|Q)^-1/2 Time:  CPU 0.49 s  wall 0.49 s

 In RI-MP2 calculation: 
 # of frozen core orbitals: 11

 Components of the RIMP2 correlation energy:
        aaaa    correlation energy =        -0.1451401452 a.u.
        abab    correlation energy =        -0.8855020052 a.u.
        bbbb    correlation energy =        -0.1451401452 a.u.
        non-Brillouin singles      =        -0.0000000000 a.u.
        total same-spin energy     =        -0.2902802904 a.u.
        total opposite-spin energy =        -0.8855020052 a.u.

 Total  RIMP2   correlation energy =        -1.1757822956 a.u.
        RIMP2         total energy =      -630.5987681177 a.u.

 RI-MP2 Energy Time:  CPU 11.21 s  wall 11.28 s
 
 --------------------------------------------------------------
 
                    Orbital Energies (a.u.)
 --------------------------------------------------------------
 
 Alpha MOs
 -- Occupied --
-91.9790 -11.2813 -11.2530 -11.2467 -11.2265 -11.2254 -11.2194  -8.9789
 -6.6599  -6.6594  -6.6587  -1.1605  -1.0559  -0.9958  -0.9450  -0.8818
 -0.7459  -0.7181  -0.6490  -0.5895  -0.5755  -0.5656  -0.5531  -0.5474
 -0.5080  -0.4906  -0.4654  -0.4529  -0.3393  -0.2940
 -- Virtual --
  0.1090   0.1431   0.1491   0.1753   0.1888   0.1952   0.2052   0.2245
  0.2301   0.2409   0.2518   0.2538   0.2913   0.3285   0.3425   0.3502
  0.3867   0.3916   0.4022   0.4195   0.4373   0.4646   0.4692   0.4881
  0.4966   0.5027   0.5193   0.5261   0.5483   0.5579   0.5811   0.5947
  0.6010   0.6063   0.6109   0.6142   0.6288   0.6392   0.6449   0.6499
  0.6560   0.6707   0.6875   0.7135   0.7305   0.7411   0.7778   0.7908
  0.8070   0.8313   0.8384   0.8515   0.8752   0.8958   0.9105   0.9376
  0.9466   0.9787   0.9844   1.0207   1.0330   1.0430   1.0563   1.0660
  1.0826   1.0861   1.1019   1.1468   1.1613   1.1796   1.1966   1.2156
  1.2190   1.2353   1.2605   1.2635   1.2803   1.2875   1.3038   1.3199
  1.3735   1.3909   1.3939   1.4120   1.4258   1.4348   1.4508   1.4830
  1.5024   1.5170   1.5284   1.5391   1.5517   1.5661   1.5759   1.5829
  1.6080   1.6281   1.6525   1.6806   1.6931   1.7025   1.7131   1.7423
  1.7512   1.7934   1.8151   1.8294   1.8891   1.9025   1.9302   1.9527
  2.0266   2.0474   2.0911   2.1382   2.1849   2.1992   2.2242   2.2560
  2.2649   2.3008   2.3667   2.4210   2.4608   2.4854   2.4935   2.5407
  2.5625   2.6068   2.6308   2.6637   2.6885   2.7021   2.7176   2.7221
  2.7443   2.7532   2.7742   2.7930   2.8055   2.8500   2.8545   2.9018
  2.9076   2.9268   2.9704   2.9821   2.9852   3.0327   3.0378   3.0600
  3.0717   3.0797   3.1143   3.1367   3.1561   3.1693   3.1810   3.1930
  3.2324   3.2408   3.2524   3.2742   3.2913   3.3026   3.3139   3.3239
  3.3495   3.3675   3.3802   3.3854   3.3992   3.4259   3.4305   3.4395
  3.4543   3.4803   3.4936   3.4983   3.5086   3.5171   3.5332   3.5603
  3.5809   3.5958   3.6124   3.6224   3.6279   3.6374   3.6545   3.6786
  3.6932   3.7027   3.7167   3.7316   3.7647   3.7770   3.7926   3.7980
  3.8178   3.8347   3.8420   3.8824   3.9158   3.9241   3.9443   3.9660
  3.9800   3.9882   4.0123   4.0225   4.0314   4.0596   4.0770   4.1071
  4.1171   4.1445   4.1664   4.1915   4.2044   4.2306   4.2426   4.2498
  4.2775   4.2956   4.3130   4.3369   4.3404   4.3565   4.3953   4.4020
  4.4223   4.4244   4.4421   4.4593   4.4707   4.4895   4.5448   4.5782
  4.6071   4.6118   4.6285   4.6597   4.7174   4.7437   4.7623   4.7787
  4.8049   4.8425   4.8453   4.8925   4.9171   4.9575   5.0617   5.1017
  5.1081   5.1535   5.1825   5.1978   5.2279   5.2626   5.2878   5.3283
  5.3715   5.4067   5.4245   5.4428   5.4807   5.5109   5.5614   5.5682
  5.5912   5.6197   5.6236   5.6850   5.7048   5.8223   5.8377   5.8671
  5.9216   6.0349   6.0776   6.1363   6.2273   6.2559   6.3136   6.3631
  6.4710   6.5669   9.2210  11.4230  12.9625  13.8706  14.1849  14.5291
 --------------------------------------------------------------
 
          Ground-State Mulliken Net Atomic Charges

     Atom                 Charge (a.u.)
  ----------------------------------------
      1 C                     0.056652
      2 C                    -0.287175
      3 C                     0.042794
      4 H                     0.180631
      5 C                    -0.265459
      6 S                    -0.004695
      7 C                    -0.273610
      8 H                     0.101484
      9 H                     0.107087
     10 H                     0.107278
     11 C                    -0.377052
     12 H                     0.126104
     13 H                     0.159330
     14 H                     0.132357
     15 H                     0.194274
  ----------------------------------------
  Sum of atomic charges =     0.000000

 -----------------------------------------------------------------
                    Cartesian Multipole Moments
 -----------------------------------------------------------------
    Charge (ESU x 10^10)
                -0.0000
    Dipole Moment (Debye)
         X      -0.5266      Y      -0.4047      Z       0.9917
       Tot       1.1936
    Quadrupole Moments (Debye-Ang)
        XX     -54.1203     XY       1.2355     YY     -41.8340
        XZ      -0.3217     YZ       1.0778     ZZ     -48.7178
    Octopole Moments (Debye-Ang^2)
       XXX       0.4761    XXY     -31.9803    XYY      -2.7476
       YYY     -81.1159    XXZ      -1.7645    XYZ       1.2615
       YYZ      -5.7299    XZZ       0.2482    YZZ     -24.9219
       ZZZ       1.6811
    Hexadecapole Moments (Debye-Ang^3)
      XXXX     -78.7005   XXXY      -2.3771   XXYY    -160.8567
      XYYY       5.1146   YYYY    -810.4815   XXXZ       0.3584
      XXYZ     -31.0147   XYYZ      -3.8367   YYYZ    -105.3077
      XXZZ    -101.4543   XYZZ      -0.9492   YYZZ    -213.5787
      XZZZ       0.2493   YZZZ    -103.8148   ZZZZ    -483.8815
 -----------------------------------------------------------------
 Total job time:  158.50s(wall), 155.69s(cpu) 
 Sun Jul 10 10:12:42 2022

        *************************************************************
        *                                                           *
        *  Thank you very much for using Q-Chem.  Have a nice day.  *
        *                                                           *
        *************************************************************


remove work dirs ./qchem1883598.0 -- ./qchem1883598.-1
rm -rf ./qchem1883598
You are running Q-Chem version: 5.4.0

#
# job setting
#
local host:  exp-12-30
current dir: /expanse/lustre/scratch/theleonzhang/temp_project/Hydrogenated_Impropers_Test
input file:  Methylthiophene_Phi_0_Theta_220_Methylthiophene_Hydrogenated_Improper_Alternate.qcin
output file: 
nprocs     : 0
nthreads   : 1
#
# qchem installation setting
#
QC:          /cm/shared/apps/spack/cpu/opt/spack/linux-centos8-zen2/gcc-10.2.0/qchem-5.4-akfmr7b3t57bfs6qan3padb2wnb2i7cl
QCAUX:       /cm/shared/apps/spack/cpu/opt/spack/linux-centos8-zen2/gcc-10.2.0/qchem-5.4-akfmr7b3t57bfs6qan3padb2wnb2i7cl/qcaux
QCPROG:      /cm/shared/apps/spack/cpu/opt/spack/linux-centos8-zen2/gcc-10.2.0/qchem-5.4-akfmr7b3t57bfs6qan3padb2wnb2i7cl/exe/qcprog.exe_s
QCPROG_S:    /cm/shared/apps/spack/cpu/opt/spack/linux-centos8-zen2/gcc-10.2.0/qchem-5.4-akfmr7b3t57bfs6qan3padb2wnb2i7cl/exe/qcprog.exe_s
PARALLEL:    -DSERIAL
QCMPI:       mpich
#
# qchem directory setting
#
qcrun:       qchem877813
QCSCRATCH:   .
QCLOCALSCR:  
QCTMPDIR:    .
QCFILEPREF:  ./qchem877813
QCSAVEDIR:   
workdirs:    ./qchem877813
workdir0:    ./qchem877813
partmpdirs =  
#
# parallel setting
#
QCRSH:           ssh
QCMPI:           mpich
QCMPIRUN:        /cm/shared/apps/spack/cpu/opt/spack/linux-centos8-zen2/gcc-10.2.0/qchem-5.4-akfmr7b3t57bfs6qan3padb2wnb2i7cl/bin/mpi/mpirun_qchem
QCMACHINEFILE:   ./qchem877813/hostfile

#
# env setting
#
exported envs:   QC QCAUX QCSCRATCH QCRUNNAME QCFILEPREF QCPROG QCPROG_S GUIFILE

Running Job 1 of 1 Methylthiophene_Phi_0_Theta_220_Methylthiophene_Hydrogenated_Improper_Alternate.qcin
qchem Methylthiophene_Phi_0_Theta_220_Methylthiophene_Hydrogenated_Improper_Alternate.qcin_877813.0 ./qchem877813/ 0
/cm/shared/apps/spack/cpu/opt/spack/linux-centos8-zen2/gcc-10.2.0/qchem-5.4-akfmr7b3t57bfs6qan3padb2wnb2i7cl/exe/qcprog.exe_s Methylthiophene_Phi_0_Theta_220_Methylthiophene_Hydrogenated_Improper_Alternate.qcin_877813.0 ./qchem877813/
                  Welcome to Q-Chem
     A Quantum Leap Into The Future Of Chemistry


 Q-Chem 5.4, Q-Chem, Inc., Pleasanton, CA (2021)

 License issued to: University of California, San Diego (site)

 E. Epifanovsky,  A. T. B. Gilbert,  Xintian Feng,  Joonho Lee,  Yuezhi Mao,  
 N. Mardirossian,  P. Pokhilko,  A. White,  M. Wormit,  M. P. Coons,  
 A. L. Dempwolff,  Zhengting Gan,  D. Hait,  P. R. Horn,  L. D. Jacobson,  
 I. Kaliman,  J. Kussmann,  A. W. Lange,  Ka Un Lao,  D. S. Levine,  Jie Liu,  
 S. C. McKenzie,  A. F. Morrison,  K. Nanda,  F. Plasser,  D. R. Rehn,  
 M. L. Vidal,  Zhi-Qiang You,  Ying Zhu,  B. Alam,  B. Albrecht,  
 A. Aldossary,  E. Alguire,  J. H. Andersen,  D. Barton,  K. Begam,  A. Behn,  
 Y. A. Bernard,  E. J. Berquist,  H. Burton,  A. Carreras,  K. Carter-Fenk,  
 R. Chakraborty,  A. D. Chien,  K. D. Closser,  V. Cofer-Shabica,  
 S. Dasgupta,  Jia Deng,  M. de Wergifosse,  M. Diedenhofen,  Hainam Do,  
 S. Ehlert,  Po-Tung Fang,  S. Fatehi,  Qingguo Feng,  J. Gayvert,  
 Qinghui Ge,  G. Gidofalvi,  M. Goldey,  J. Gomes,  C. Gonzalez-Espinoza,  
 S. Gulania,  A. Gunina,  M. W. D. Hanson-Heine,  P. H. P. Harbach,  
 A. W. Hauser,  M. F. Herbst,  M. Hernandez Vera,  M. Hodecker,  
 Z. C. Holden,  S. Houck,  Xunkun Huang,  Kerwin Hui,  B. C. Huynh,  
 M. Ivanov,  Hyunjun Ji,  Hanjie Jiang,  B. Kaduk,  S. Kaehler,  
 K. Khistyaev,  Jaehoon Kim,  P. Klunzinger,  Z. Koczor-Benda,  
 Joong Hoon Koh,  D. Kosenkov,  L. Koulias,  T. Kowalczyk,  C. M. Krauter,  
 K. Kue,  A. Kunitsa,  T. Kus,  A. Landau,  K. V. Lawler,  D. Lefrancois,  
 S. Lehtola,  Rain Li,  Yi-Pei Li,  Jiashu Liang,  M. Liebenthal,  
 Hung-Hsuan Lin,  You-Sheng Lin,  Fenglai Liu,  Kuan-Yu Liu,  
 M. Loipersberger,  A. Luenser,  A. Manjanath,  P. Manohar,  E. Mansoor,  
 S. F. Manzer,  Shan-Ping Mao,  A. V. Marenich,  T. Markovich,  S. Mason,  
 S. A. Maurer,  P. F. McLaughlin,  M. F. S. J. Menger,  J.-M. Mewes,  
 S. A. Mewes,  P. Morgante,  J. W. Mullinax,  T. S. Nguyen-Beck,  
 K. J. Oosterbaan,  G. Paran,  Alexander C. Paul,  Suranjan K. Paul,  
 F. Pavosevic,  Zheng Pei,  S. Prager,  E. I. Proynov,  E. Ramos,  B. Rana,  
 A. E. Rask,  A. Rettig,  R. M. Richard,  F. Rob,  E. Rossomme,  T. Scheele,  
 M. Scheurer,  M. Schneider,  N. Sergueev,  S. M. Sharada,  W. Skomorowski,  
 D. W. Small,  C. J. Stein,  Yu-Chuan Su,  E. J. Sundstrom,  Zhen Tao,  
 J. Thirman,  T. Tsuchimochi,  N. M. Tubman,  S. P. Veccham,  O. Vydrov,  
 J. Wenzel,  J. Witte,  A. Yamada,  Kun Yao,  S. Yeganeh,  S. R. Yost,  
 A. Zech,  Igor Ying Zhang,  Xing Zhang,  Yu Zhang,  D. Zuev,  
 A. Aspuru-Guzik,  A. T. Bell,  N. A. Besley,  K. B. Bravaya,  B. R. Brooks,  
 D. Casanova,  Jeng-Da Chai,  S. Coriani,  C. J. Cramer,  
 A. E. DePrince, III,  R. A. DiStasio Jr.,  A. Dreuw,  B. D. Dunietz,  
 T. R. Furlani,  W. A. Goddard III,  S. Grimme,  S. Hammes-Schiffer,  
 T. Head-Gordon,  W. J. Hehre,  Chao-Ping Hsu,  T.-C. Jagau,  Yousung Jung,  
 A. Klamt,  Jing Kong,  D. S. Lambrecht,  WanZhen Liang,  N. J. Mayhall,  
 C. W. McCurdy,  J. B. Neaton,  C. Ochsenfeld,  J. A. Parkhill,  R. Peverati,  
 V. A. Rassolov,  Yihan Shao,  L. V. Slipchenko,  T. Stauch,  R. P. Steele,  
 J. E. Subotnik,  A. J. W. Thom,  A. Tkatchenko,  D. G. Truhlar,  
 T. Van Voorhis,  T. A. Wesolowski,  K. B. Whaley,  H. L. Woodcock III,  
 P. M. Zimmerman,  S. Faraji,  P. M. W. Gill,  M. Head-Gordon,  
 J. M. Herbert,  A. I. Krylov

 Contributors to earlier versions of Q-Chem not listed above: 
 R. D. Adamson,  B. Austin,  R. Baer,  J. Baker,  G. J. O. Beran,  
 K. Brandhorst,  S. T. Brown,  E. F. C. Byrd,  A. K. Chakraborty,  
 G. K. L. Chan,  Chun-Min Chang,  Yunqing Chen,  C.-L. Cheng,  
 Siu Hung Chien,  D. M. Chipman,  D. L. Crittenden,  H. Dachsel,  
 R. J. Doerksen,  A. D. Dutoi,  R. G. Edgar,  J. Fosso-Tande,  
 L. Fusti-Molnar,  D. Ghosh,  A. Ghysels,  A. Golubeva-Zadorozhnaya,  
 J. Gonthier,  M. S. Gordon,  S. R. Gwaltney,  G. Hawkins,  J. E. Herr,  
 A. Heyden,  S. Hirata,  E. G. Hohenstein,  G. Kedziora,  F. J. Keil,  
 C. Kelley,  Jihan Kim,  R. A. King,  R. Z. Khaliullin,  P. P. Korambath,  
 W. Kurlancheek,  A. Laurent,  A. M. Lee,  M. S. Lee,  S. V. Levchenko,  
 Ching Yeh Lin,  D. Liotard,  E. Livshits,  R. C. Lochan,  I. Lotan,  
 L. A. Martinez-Martinez,  P. E. Maslen,  N. Nair,  D. P. O'Neill,  
 D. Neuhauser,  E. Neuscamman,  C. M. Oana,  R. Olivares-Amaya,  R. Olson,  
 T. M. Perrine,  B. Peters,  P. A. Pieniazek,  A. Prociuk,  Y. M. Rhee,  
 J. Ritchie,  M. A. Rohrdanz,  E. Rosta,  N. J. Russ,  H. F. Schaefer III,  
 M. W. Schmidt,  N. E. Schultz,  S. Sharma,  N. Shenvi,  C. D. Sherrill,  
 A. C. Simmonett,  A. Sodt,  T. Stein,  D. Stuck,  K. S. Thanthiriwatte,  
 V. Vanovschi,  L. Vogt,  Tao Wang,  A. Warshel,  M. A. Watson,  
 C. F. Williams,  Q. Wu,  X. Xu,  Jun Yang,  W. Zhang,  Yan Zhao

 Please cite Q-Chem as follows:
 Y. Shao et al., Mol. Phys. 113, 184-215 (2015)
 DOI: 10.1080/00268976.2014.952696

 Q-Chem 5.4.0 for Intel X86 EM64T Linux

 Parts of Q-Chem use Armadillo 9.800.1 (Horizon Scraper).
 http://arma.sourceforge.net/

 Q-Chem begins on Sun Jul 10 10:38:53 2022  

 Host: 
0

     Scratch files written to ./qchem877813//
 May1621 |scratch|qcdevops|jenkins|workspace|build_RNUM    
 Processing $rem in /cm/shared/apps/spack/cpu/opt/spack/linux-centos8-zen2/gcc-10.2.0/qchem-5.4-akfmr7b3t57bfs6qan3padb2wnb2i7cl/config/preferences:
 Processing $rem in /home/theleonzhang/.qchemrc:
 Symmetry turned off for PCM/SM12/SMD calculation
 Core orbitals will be frozen

 Checking the input file for inconsistencies... 	...done.

--------------------------------------------------------------
User input:
--------------------------------------------------------------
$molecule
0 1
C	0.003329	-0.576309	0.018592
C	0.003329	0.287291	1.117992
C	0.003429	1.671191	0.795292
H	0.003329	-0.081509	2.154692
C	0.003429	1.891891	-0.593908
S	0.003329	0.366091	-1.468208
C	0.003429	2.758991	1.833192
H	0.003429	2.333291	2.855292
H	-0.888971	3.413291	1.744792
H	0.895829	3.413191	1.744792
C	0.003329	-2.017009	0.018592
H	-0.823971	-2.017209	-0.675708
H	-0.523271	-2.720809	0.646092
H	0.612129	-2.535909	-0.707008
H	0.003429	2.841091	-1.143008
$end

$rem
JOBTYPE		SP
EXCHANGE	HF
CORRELATION	pRIMP2
BASIS		cc-pvtz
METHOD		rimp2
AUX_BASIS	rimp2-cc-pvtz
SOLVENT_METHOD	PCM
PURECART	11111
SYMMETRY	false
MEM_TOTAL	110000
SCF_CONVERGENCE = 6
THRESH=10
$end



$solvent
dielectric 4.90
$end
--------------------------------------------------------------
 ----------------------------------------------------------------
             Standard Nuclear Orientation (Angstroms)
    I     Atom           X                Y                Z
 ----------------------------------------------------------------
    1      C       0.0033290000    -0.5763090000     0.0185920000
    2      C       0.0033290000     0.2872910000     1.1179920000
    3      C       0.0034290000     1.6711910000     0.7952920000
    4      H       0.0033290000    -0.0815090000     2.1546920000
    5      C       0.0034290000     1.8918910000    -0.5939080000
    6      S       0.0033290000     0.3660910000    -1.4682080000
    7      C       0.0034290000     2.7589910000     1.8331920000
    8      H       0.0034290000     2.3332910000     2.8552920000
    9      H      -0.8889710000     3.4132910000     1.7447920000
   10      H       0.8958290000     3.4131910000     1.7447920000
   11      C       0.0033290000    -2.0170090000     0.0185920000
   12      H      -0.8239710000    -2.0172090000    -0.6757080000
   13      H      -0.5232710000    -2.7208090000     0.6460920000
   14      H       0.6121290000    -2.5359090000    -0.7070080000
   15      H       0.0034290000     2.8410910000    -1.1430080000
 ----------------------------------------------------------------
 Nuclear Repulsion Energy =         344.58319445 hartrees
 There are       30 alpha and       30 beta electrons

 Q-Chem warning in module forms1/BasisType.C, line 2236:

 You are not using the predefined 5D/6D in this basis set.

 Requested basis set is cc-pVTZ
 There are 120 shells and 326 basis functions

 Total QAlloc Memory Limit 110000 MB
 Mega-Array Size       188 MB
 MEM_STATIC part       192 MB
 Discretize the solute cavity surface with Lebedev spheres
	Using 110 Lebedev grid points for each H atom
	Using 194 Lebedev grid points for other atoms
	Atomic van der Waals radii will be scaled by 1.20
 Remove points where switching function is < 1.0e-08
 Keep 1065 surface tesserae and discard 1173 interior tesserae
 Molecular Surface Area = 159.416 Angst**2

                       Distance Matrix (Angstroms)
             C (  1)   C (  2)   C (  3)   H (  4)   C (  5)   S (  6)
   C (  2)  1.398029
   C (  3)  2.377923  1.421026
   H (  4)  2.192658  1.100346  2.218091
   C (  5)  2.543063  2.346347  1.406622  3.383653
   S (  6)  1.760310  2.587400  2.612799  3.650445  1.758541
   C (  7)  3.796972  2.573094  1.503511  2.858636  2.577339  4.077403
   H (  8)  4.063575  2.684088  2.163788  2.514379  3.477329  4.750003
   H (  9)  4.437665  3.310733  2.175509  3.630130  2.929258  4.517189
   H ( 10)  4.437616  3.310693  2.175429  3.630083  2.929206  4.517161
   C ( 11)  1.440700  2.553131  3.769096  2.882548  3.956596  2.808868
   H ( 12)  1.800742  3.035211  4.056196  3.527396  3.996542  2.644353
   H ( 13)  2.295636  3.090091  4.425984  3.085302  4.805415  3.778429
   H ( 14)  2.176503  3.416390  4.508560  3.818906  4.470875  3.061318
   H ( 15)  3.609423  3.410867  2.263995  4.406406  1.096582  2.496273
             C (  7)   H (  8)   H (  9)   H ( 10)   C ( 11)   H ( 12)
   H (  8)  1.107208
   H (  9)  1.110090  1.787733
   H ( 10)  1.110032  1.787672  1.784800
   C ( 11)  5.109105  5.193455  5.767506  5.767443
   H ( 12)  5.458137  5.663868  5.945870  6.189166  1.080036
   H ( 13)  5.631592  5.540930  6.242440  6.391161  1.079999  1.527295
   H ( 14)  5.904159  6.063795  6.607390  6.440776  1.079995  1.527224
   H ( 15)  2.977332  4.030417  3.076228  3.076210  4.995043  4.950357
             H ( 13)   H ( 14)
   H ( 14)  1.776007
   H ( 15)  5.866261  5.428880
 
 Requested basis set is rimp2-cc-pVTZ
 There are 250 shells and 848 basis functions
 A cutoff of  1.0D-10 yielded   6163 shell pairs
 There are     45119 function pairs (     58020 Cartesian)
 Smallest overlap matrix eigenvalue = 8.89E-05

 Scale SEOQF with 1.000000e+00/1.000000e-01/1.000000e-01

 Standard Electronic Orientation quadrupole field applied
 Nucleus-field energy     =     0.0000000034 hartrees
 Guess from superposition of atomic densities
 Warning:  Energy on first SCF cycle will be non-variational
 SAD guess density has 60.000000 electrons

 -----------------------------------------------------------------------
  General SCF calculation program by
  Eric Jon Sundstrom, Paul Horn, Yuezhi Mao, Dmitri Zuev, Alec White,
  David Stuck, Shaama M.S., Shane Yost, Joonho Lee, David Small,
  Daniel Levine, Susi Lehtola, Hugh Burton, Evgeny Epifanovsky,
  Bang C. Huynh
 -----------------------------------------------------------------------
 Hartree-Fock
 A restricted SCF calculation will be
 performed using DIIS
 SCF converges when DIIS error is below 1.0e-06
 ---------------------------------------
  Cycle       Energy         DIIS error
 ---------------------------------------
    1    -632.1000075188      2.92e-02  
    2    -629.3421292999      1.95e-03  
    3    -629.4127519401      7.06e-04  
    4    -629.4205372767      3.58e-04  
    5    -629.4228019617      6.38e-05  
    6    -629.4229400659      2.65e-05  
    7    -629.4229746716      1.15e-05  
    8    -629.4229841810      5.15e-06  
    9    -629.4229856410      1.70e-06  
   10    -629.4229858221      6.49e-07  Convergence criterion met
 ---------------------------------------
 SCF time:   CPU 143.64s  wall 144.00s 

************** Final PCM Free Energy Summary **************
 G_electrostatic  =      -0.00549746 hartree =      -3.44970817 kcal/mol
 G_cavitation     =       0.00000000 hartree =       0.00000000 kcal/mol
 G_dispersion     =       0.00000000 hartree =       0.00000000 kcal/mol
 G_repulsion      =       0.00000000 hartree =       0.00000000 kcal/mol
 --------------------------------------------------
 Non-electrostatic Free Energy =       0.00000000 hartree =       0.00000000 kcal/mol
 Total                         =      -0.00549746 hartree =      -3.44970817 kcal/mol
 --------------------------------------------------
 SCF Energy (H0 + V/2)                       =    -629.42298582 
 Solute Internal Energy (H0)                 =    -629.41748836 
 Total Free Energy (H0 + V/2 + non-elec)     =    -629.42298582 hartree
                                             = -394968.88486847 kcal/mol
***********************************************************

 SCF   energy in the final basis set =     -629.4229858221
 Total energy in the final basis set =     -629.4229858221


 --------------------------------------------------------------
  Generalized many-body perturbation theory program
  by Joonho Lee, Fazle Rob, Xintian Feng, Evgeny Epifanovsky

 No regularization used 
 (reg. param. = 0.0000e+00)
  (P|Q)^-1/2 Time:  CPU 0.48 s  wall 0.48 s

 In RI-MP2 calculation: 
 # of frozen core orbitals: 11

 Components of the RIMP2 correlation energy:
        aaaa    correlation energy =        -0.1451401452 a.u.
        abab    correlation energy =        -0.8855020052 a.u.
        bbbb    correlation energy =        -0.1451401452 a.u.
        non-Brillouin singles      =        -0.0000000000 a.u.
        total same-spin energy     =        -0.2902802904 a.u.
        total opposite-spin energy =        -0.8855020052 a.u.

 Total  RIMP2   correlation energy =        -1.1757822956 a.u.
        RIMP2         total energy =      -630.5987681177 a.u.

 RI-MP2 Energy Time:  CPU 11.04 s  wall 11.08 s
 
 --------------------------------------------------------------
 
                    Orbital Energies (a.u.)
 --------------------------------------------------------------
 
 Alpha MOs
 -- Occupied --
-91.9790 -11.2813 -11.2530 -11.2467 -11.2265 -11.2254 -11.2194  -8.9789
 -6.6599  -6.6594  -6.6587  -1.1605  -1.0559  -0.9958  -0.9450  -0.8818
 -0.7459  -0.7181  -0.6490  -0.5895  -0.5755  -0.5656  -0.5531  -0.5474
 -0.5080  -0.4906  -0.4654  -0.4529  -0.3393  -0.2940
 -- Virtual --
  0.1090   0.1431   0.1491   0.1753   0.1888   0.1952   0.2052   0.2245
  0.2301   0.2409   0.2518   0.2538   0.2913   0.3285   0.3425   0.3502
  0.3867   0.3916   0.4022   0.4195   0.4373   0.4646   0.4692   0.4881
  0.4966   0.5027   0.5193   0.5261   0.5483   0.5579   0.5811   0.5947
  0.6010   0.6063   0.6109   0.6142   0.6288   0.6392   0.6449   0.6499
  0.6560   0.6707   0.6875   0.7135   0.7305   0.7411   0.7778   0.7908
  0.8070   0.8313   0.8384   0.8515   0.8752   0.8958   0.9105   0.9376
  0.9466   0.9787   0.9844   1.0207   1.0330   1.0430   1.0563   1.0660
  1.0826   1.0861   1.1019   1.1468   1.1613   1.1796   1.1966   1.2156
  1.2190   1.2353   1.2605   1.2635   1.2803   1.2875   1.3038   1.3199
  1.3735   1.3909   1.3939   1.4120   1.4258   1.4348   1.4508   1.4830
  1.5024   1.5170   1.5284   1.5391   1.5517   1.5661   1.5759   1.5829
  1.6080   1.6281   1.6525   1.6806   1.6931   1.7025   1.7131   1.7423
  1.7512   1.7934   1.8151   1.8294   1.8891   1.9025   1.9302   1.9527
  2.0266   2.0474   2.0911   2.1382   2.1849   2.1992   2.2242   2.2560
  2.2649   2.3008   2.3667   2.4210   2.4608   2.4854   2.4935   2.5407
  2.5625   2.6068   2.6308   2.6637   2.6885   2.7021   2.7176   2.7221
  2.7443   2.7532   2.7742   2.7930   2.8055   2.8500   2.8545   2.9018
  2.9076   2.9268   2.9704   2.9821   2.9852   3.0327   3.0378   3.0600
  3.0717   3.0797   3.1143   3.1367   3.1561   3.1693   3.1810   3.1930
  3.2324   3.2408   3.2524   3.2742   3.2913   3.3026   3.3139   3.3239
  3.3495   3.3675   3.3802   3.3854   3.3992   3.4259   3.4305   3.4395
  3.4543   3.4803   3.4936   3.4983   3.5086   3.5171   3.5332   3.5603
  3.5809   3.5958   3.6124   3.6224   3.6279   3.6374   3.6545   3.6786
  3.6932   3.7027   3.7167   3.7316   3.7647   3.7770   3.7926   3.7980
  3.8178   3.8347   3.8420   3.8824   3.9158   3.9241   3.9443   3.9660
  3.9800   3.9882   4.0123   4.0225   4.0314   4.0596   4.0770   4.1071
  4.1171   4.1445   4.1664   4.1915   4.2044   4.2306   4.2426   4.2498
  4.2775   4.2956   4.3130   4.3369   4.3404   4.3565   4.3953   4.4020
  4.4223   4.4244   4.4421   4.4593   4.4707   4.4895   4.5448   4.5782
  4.6071   4.6118   4.6285   4.6597   4.7174   4.7437   4.7623   4.7787
  4.8049   4.8425   4.8453   4.8925   4.9171   4.9575   5.0617   5.1017
  5.1081   5.1535   5.1825   5.1978   5.2279   5.2626   5.2878   5.3283
  5.3715   5.4067   5.4245   5.4428   5.4807   5.5109   5.5614   5.5682
  5.5912   5.6197   5.6236   5.6850   5.7048   5.8223   5.8377   5.8671
  5.9216   6.0349   6.0776   6.1363   6.2273   6.2559   6.3136   6.3631
  6.4710   6.5669   9.2210  11.4230  12.9625  13.8706  14.1849  14.5291
 --------------------------------------------------------------
 
          Ground-State Mulliken Net Atomic Charges

     Atom                 Charge (a.u.)
  ----------------------------------------
      1 C                     0.056652
      2 C                    -0.287175
      3 C                     0.042794
      4 H                     0.180631
      5 C                    -0.265459
      6 S                    -0.004695
      7 C                    -0.273610
      8 H                     0.101484
      9 H                     0.107087
     10 H                     0.107278
     11 C                    -0.377052
     12 H                     0.126104
     13 H                     0.159330
     14 H                     0.132357
     15 H                     0.194274
  ----------------------------------------
  Sum of atomic charges =     0.000000

 -----------------------------------------------------------------
                    Cartesian Multipole Moments
 -----------------------------------------------------------------
    Charge (ESU x 10^10)
                -0.0000
    Dipole Moment (Debye)
         X      -0.5266      Y      -0.4047      Z       0.9917
       Tot       1.1936
    Quadrupole Moments (Debye-Ang)
        XX     -54.1203     XY       1.2355     YY     -41.8340
        XZ      -0.3217     YZ       1.0778     ZZ     -48.7178
    Octopole Moments (Debye-Ang^2)
       XXX       0.4761    XXY     -31.9803    XYY      -2.7476
       YYY     -81.1159    XXZ      -1.7645    XYZ       1.2615
       YYZ      -5.7299    XZZ       0.2482    YZZ     -24.9219
       ZZZ       1.6811
    Hexadecapole Moments (Debye-Ang^3)
      XXXX     -78.7005   XXXY      -2.3771   XXYY    -160.8567
      XYYY       5.1146   YYYY    -810.4815   XXXZ       0.3584
      XXYZ     -31.0147   XYYZ      -3.8367   YYYZ    -105.3077
      XXZZ    -101.4543   XYZZ      -0.9492   YYZZ    -213.5787
      XZZZ       0.2493   YZZZ    -103.8148   ZZZZ    -483.8815
 -----------------------------------------------------------------
 Total job time:  156.28s(wall), 155.04s(cpu) 
 Sun Jul 10 10:41:30 2022

        *************************************************************
        *                                                           *
        *  Thank you very much for using Q-Chem.  Have a nice day.  *
        *                                                           *
        *************************************************************


remove work dirs ./qchem877813.0 -- ./qchem877813.-1
rm -rf ./qchem877813
