You are running Q-Chem version: 5.4.0

#
# job setting
#
local host:  exp-4-11
current dir: /expanse/lustre/scratch/theleonzhang/temp_project/Hydrogenated_Impropers_Test
input file:  Methylthiophene_Phi_15_Theta_310_Methylthiophene_Hydrogenated_Improper.qcin
output file: 
nprocs     : 0
nthreads   : 1
#
# qchem installation setting
#
QC:          /cm/shared/apps/spack/cpu/opt/spack/linux-centos8-zen2/gcc-10.2.0/qchem-5.4-akfmr7b3t57bfs6qan3padb2wnb2i7cl
QCAUX:       /cm/shared/apps/spack/cpu/opt/spack/linux-centos8-zen2/gcc-10.2.0/qchem-5.4-akfmr7b3t57bfs6qan3padb2wnb2i7cl/qcaux
QCPROG:      /cm/shared/apps/spack/cpu/opt/spack/linux-centos8-zen2/gcc-10.2.0/qchem-5.4-akfmr7b3t57bfs6qan3padb2wnb2i7cl/exe/qcprog.exe_s
QCPROG_S:    /cm/shared/apps/spack/cpu/opt/spack/linux-centos8-zen2/gcc-10.2.0/qchem-5.4-akfmr7b3t57bfs6qan3padb2wnb2i7cl/exe/qcprog.exe_s
PARALLEL:    -DSERIAL
QCMPI:       mpich
#
# qchem directory setting
#
qcrun:       qchem3444973
QCSCRATCH:   .
QCLOCALSCR:  
QCTMPDIR:    .
QCFILEPREF:  ./qchem3444973
QCSAVEDIR:   
workdirs:    ./qchem3444973
workdir0:    ./qchem3444973
partmpdirs =  
#
# parallel setting
#
QCRSH:           ssh
QCMPI:           mpich
QCMPIRUN:        /cm/shared/apps/spack/cpu/opt/spack/linux-centos8-zen2/gcc-10.2.0/qchem-5.4-akfmr7b3t57bfs6qan3padb2wnb2i7cl/bin/mpi/mpirun_qchem
QCMACHINEFILE:   ./qchem3444973/hostfile

#
# env setting
#
exported envs:   QC QCAUX QCSCRATCH QCRUNNAME QCFILEPREF QCPROG QCPROG_S GUIFILE

Running Job 1 of 1 Methylthiophene_Phi_15_Theta_310_Methylthiophene_Hydrogenated_Improper.qcin
qchem Methylthiophene_Phi_15_Theta_310_Methylthiophene_Hydrogenated_Improper.qcin_3444973.0 ./qchem3444973/ 0
/cm/shared/apps/spack/cpu/opt/spack/linux-centos8-zen2/gcc-10.2.0/qchem-5.4-akfmr7b3t57bfs6qan3padb2wnb2i7cl/exe/qcprog.exe_s Methylthiophene_Phi_15_Theta_310_Methylthiophene_Hydrogenated_Improper.qcin_3444973.0 ./qchem3444973/
                  Welcome to Q-Chem
     A Quantum Leap Into The Future Of Chemistry


 Q-Chem 5.4, Q-Chem, Inc., Pleasanton, CA (2021)

 License issued to: University of California, San Diego (site)

 E. Epifanovsky,  A. T. B. Gilbert,  Xintian Feng,  Joonho Lee,  Yuezhi Mao,  
 N. Mardirossian,  P. Pokhilko,  A. White,  M. Wormit,  M. P. Coons,  
 A. L. Dempwolff,  Zhengting Gan,  D. Hait,  P. R. Horn,  L. D. Jacobson,  
 I. Kaliman,  J. Kussmann,  A. W. Lange,  Ka Un Lao,  D. S. Levine,  Jie Liu,  
 S. C. McKenzie,  A. F. Morrison,  K. Nanda,  F. Plasser,  D. R. Rehn,  
 M. L. Vidal,  Zhi-Qiang You,  Ying Zhu,  B. Alam,  B. Albrecht,  
 A. Aldossary,  E. Alguire,  J. H. Andersen,  D. Barton,  K. Begam,  A. Behn,  
 Y. A. Bernard,  E. J. Berquist,  H. Burton,  A. Carreras,  K. Carter-Fenk,  
 R. Chakraborty,  A. D. Chien,  K. D. Closser,  V. Cofer-Shabica,  
 S. Dasgupta,  Jia Deng,  M. de Wergifosse,  M. Diedenhofen,  Hainam Do,  
 S. Ehlert,  Po-Tung Fang,  S. Fatehi,  Qingguo Feng,  J. Gayvert,  
 Qinghui Ge,  G. Gidofalvi,  M. Goldey,  J. Gomes,  C. Gonzalez-Espinoza,  
 S. Gulania,  A. Gunina,  M. W. D. Hanson-Heine,  P. H. P. Harbach,  
 A. W. Hauser,  M. F. Herbst,  M. Hernandez Vera,  M. Hodecker,  
 Z. C. Holden,  S. Houck,  Xunkun Huang,  Kerwin Hui,  B. C. Huynh,  
 M. Ivanov,  Hyunjun Ji,  Hanjie Jiang,  B. Kaduk,  S. Kaehler,  
 K. Khistyaev,  Jaehoon Kim,  P. Klunzinger,  Z. Koczor-Benda,  
 Joong Hoon Koh,  D. Kosenkov,  L. Koulias,  T. Kowalczyk,  C. M. Krauter,  
 K. Kue,  A. Kunitsa,  T. Kus,  A. Landau,  K. V. Lawler,  D. Lefrancois,  
 S. Lehtola,  Rain Li,  Yi-Pei Li,  Jiashu Liang,  M. Liebenthal,  
 Hung-Hsuan Lin,  You-Sheng Lin,  Fenglai Liu,  Kuan-Yu Liu,  
 M. Loipersberger,  A. Luenser,  A. Manjanath,  P. Manohar,  E. Mansoor,  
 S. F. Manzer,  Shan-Ping Mao,  A. V. Marenich,  T. Markovich,  S. Mason,  
 S. A. Maurer,  P. F. McLaughlin,  M. F. S. J. Menger,  J.-M. Mewes,  
 S. A. Mewes,  P. Morgante,  J. W. Mullinax,  T. S. Nguyen-Beck,  
 K. J. Oosterbaan,  G. Paran,  Alexander C. Paul,  Suranjan K. Paul,  
 F. Pavosevic,  Zheng Pei,  S. Prager,  E. I. Proynov,  E. Ramos,  B. Rana,  
 A. E. Rask,  A. Rettig,  R. M. Richard,  F. Rob,  E. Rossomme,  T. Scheele,  
 M. Scheurer,  M. Schneider,  N. Sergueev,  S. M. Sharada,  W. Skomorowski,  
 D. W. Small,  C. J. Stein,  Yu-Chuan Su,  E. J. Sundstrom,  Zhen Tao,  
 J. Thirman,  T. Tsuchimochi,  N. M. Tubman,  S. P. Veccham,  O. Vydrov,  
 J. Wenzel,  J. Witte,  A. Yamada,  Kun Yao,  S. Yeganeh,  S. R. Yost,  
 A. Zech,  Igor Ying Zhang,  Xing Zhang,  Yu Zhang,  D. Zuev,  
 A. Aspuru-Guzik,  A. T. Bell,  N. A. Besley,  K. B. Bravaya,  B. R. Brooks,  
 D. Casanova,  Jeng-Da Chai,  S. Coriani,  C. J. Cramer,  
 A. E. DePrince, III,  R. A. DiStasio Jr.,  A. Dreuw,  B. D. Dunietz,  
 T. R. Furlani,  W. A. Goddard III,  S. Grimme,  S. Hammes-Schiffer,  
 T. Head-Gordon,  W. J. Hehre,  Chao-Ping Hsu,  T.-C. Jagau,  Yousung Jung,  
 A. Klamt,  Jing Kong,  D. S. Lambrecht,  WanZhen Liang,  N. J. Mayhall,  
 C. W. McCurdy,  J. B. Neaton,  C. Ochsenfeld,  J. A. Parkhill,  R. Peverati,  
 V. A. Rassolov,  Yihan Shao,  L. V. Slipchenko,  T. Stauch,  R. P. Steele,  
 J. E. Subotnik,  A. J. W. Thom,  A. Tkatchenko,  D. G. Truhlar,  
 T. Van Voorhis,  T. A. Wesolowski,  K. B. Whaley,  H. L. Woodcock III,  
 P. M. Zimmerman,  S. Faraji,  P. M. W. Gill,  M. Head-Gordon,  
 J. M. Herbert,  A. I. Krylov

 Contributors to earlier versions of Q-Chem not listed above: 
 R. D. Adamson,  B. Austin,  R. Baer,  J. Baker,  G. J. O. Beran,  
 K. Brandhorst,  S. T. Brown,  E. F. C. Byrd,  A. K. Chakraborty,  
 G. K. L. Chan,  Chun-Min Chang,  Yunqing Chen,  C.-L. Cheng,  
 Siu Hung Chien,  D. M. Chipman,  D. L. Crittenden,  H. Dachsel,  
 R. J. Doerksen,  A. D. Dutoi,  R. G. Edgar,  J. Fosso-Tande,  
 L. Fusti-Molnar,  D. Ghosh,  A. Ghysels,  A. Golubeva-Zadorozhnaya,  
 J. Gonthier,  M. S. Gordon,  S. R. Gwaltney,  G. Hawkins,  J. E. Herr,  
 A. Heyden,  S. Hirata,  E. G. Hohenstein,  G. Kedziora,  F. J. Keil,  
 C. Kelley,  Jihan Kim,  R. A. King,  R. Z. Khaliullin,  P. P. Korambath,  
 W. Kurlancheek,  A. Laurent,  A. M. Lee,  M. S. Lee,  S. V. Levchenko,  
 Ching Yeh Lin,  D. Liotard,  E. Livshits,  R. C. Lochan,  I. Lotan,  
 L. A. Martinez-Martinez,  P. E. Maslen,  N. Nair,  D. P. O'Neill,  
 D. Neuhauser,  E. Neuscamman,  C. M. Oana,  R. Olivares-Amaya,  R. Olson,  
 T. M. Perrine,  B. Peters,  P. A. Pieniazek,  A. Prociuk,  Y. M. Rhee,  
 J. Ritchie,  M. A. Rohrdanz,  E. Rosta,  N. J. Russ,  H. F. Schaefer III,  
 M. W. Schmidt,  N. E. Schultz,  S. Sharma,  N. Shenvi,  C. D. Sherrill,  
 A. C. Simmonett,  A. Sodt,  T. Stein,  D. Stuck,  K. S. Thanthiriwatte,  
 V. Vanovschi,  L. Vogt,  Tao Wang,  A. Warshel,  M. A. Watson,  
 C. F. Williams,  Q. Wu,  X. Xu,  Jun Yang,  W. Zhang,  Yan Zhao

 Please cite Q-Chem as follows:
 Y. Shao et al., Mol. Phys. 113, 184-215 (2015)
 DOI: 10.1080/00268976.2014.952696

 Q-Chem 5.4.0 for Intel X86 EM64T Linux

 Parts of Q-Chem use Armadillo 9.800.1 (Horizon Scraper).
 http://arma.sourceforge.net/

 Q-Chem begins on Sun Jul 10 10:14:30 2022  

 Host: 
0

     Scratch files written to ./qchem3444973//
 May1621 |scratch|qcdevops|jenkins|workspace|build_RNUM    
 Processing $rem in /cm/shared/apps/spack/cpu/opt/spack/linux-centos8-zen2/gcc-10.2.0/qchem-5.4-akfmr7b3t57bfs6qan3padb2wnb2i7cl/config/preferences:
 Processing $rem in /home/theleonzhang/.qchemrc:
 Symmetry turned off for PCM/SM12/SMD calculation
 Core orbitals will be frozen

 Checking the input file for inconsistencies... 	...done.

--------------------------------------------------------------
User input:
--------------------------------------------------------------
$molecule
0 1
C	-0.172896	-0.553191	0.010946
C	0.050604	0.281009	1.110346
C	0.408804	1.617709	0.787646
H	-0.044796	-0.075291	2.147046
C	0.466004	1.830809	-0.601554
S	0.071004	0.357109	-1.475854
C	0.690404	2.668409	1.825546
H	0.580204	2.257309	2.847646
H	-0.002196	3.531409	1.737146
H	1.721704	3.069409	1.737146
C	-0.172896	-1.993891	0.010946
H	-0.867196	-1.993591	0.838246
H	-0.800396	-2.697691	-0.515654
H	0.552704	-2.512791	0.619746
H	0.711704	2.747709	-1.150654
$end

$rem
JOBTYPE		SP
EXCHANGE	HF
CORRELATION	pRIMP2
BASIS		cc-pvtz
METHOD		rimp2
AUX_BASIS	rimp2-cc-pvtz
SOLVENT_METHOD	PCM
PURECART	11111
SYMMETRY	false
MEM_TOTAL	110000
SCF_CONVERGENCE = 6
THRESH=10
$end



$solvent
dielectric 4.90
$end
--------------------------------------------------------------
 ----------------------------------------------------------------
             Standard Nuclear Orientation (Angstroms)
    I     Atom           X                Y                Z
 ----------------------------------------------------------------
    1      C      -0.1728960000    -0.5531910000     0.0109460000
    2      C       0.0506040000     0.2810090000     1.1103460000
    3      C       0.4088040000     1.6177090000     0.7876460000
    4      H      -0.0447960000    -0.0752910000     2.1470460000
    5      C       0.4660040000     1.8308090000    -0.6015540000
    6      S       0.0710040000     0.3571090000    -1.4758540000
    7      C       0.6904040000     2.6684090000     1.8255460000
    8      H       0.5802040000     2.2573090000     2.8476460000
    9      H      -0.0021960000     3.5314090000     1.7371460000
   10      H       1.7217040000     3.0694090000     1.7371460000
   11      C      -0.1728960000    -1.9938910000     0.0109460000
   12      H      -0.8671960000    -1.9935910000     0.8382460000
   13      H      -0.8003960000    -2.6976910000    -0.5156540000
   14      H       0.5527040000    -2.5127910000     0.6197460000
   15      H       0.7117040000     2.7477090000    -1.1506540000
 ----------------------------------------------------------------
 Nuclear Repulsion Energy =         344.52312966 hartrees
 There are       30 alpha and       30 beta electrons

 Q-Chem warning in module forms1/BasisType.C, line 2236:

 You are not using the predefined 5D/6D in this basis set.

 Requested basis set is cc-pVTZ
 There are 120 shells and 326 basis functions

 Total QAlloc Memory Limit 110000 MB
 Mega-Array Size       188 MB
 MEM_STATIC part       192 MB
 Discretize the solute cavity surface with Lebedev spheres
	Using 110 Lebedev grid points for each H atom
	Using 194 Lebedev grid points for other atoms
	Atomic van der Waals radii will be scaled by 1.20
 Remove points where switching function is < 1.0e-08
 Keep 1058 surface tesserae and discard 1180 interior tesserae
 Molecular Surface Area = 158.328 Angst**2

                       Distance Matrix (Angstroms)
             C (  1)   C (  2)   C (  3)   H (  4)   C (  5)   S (  6)
   C (  2)  1.398042
   C (  3)  2.377908  1.420989
   H (  4)  2.192652  1.100363  2.218101
   C (  5)  2.542991  2.346282  1.406613  3.383628
   S (  6)  1.760315  2.587400  2.612787  3.650450  1.758470
   C (  7)  3.796942  2.573040  1.503498  2.858631  2.577352  4.077377
   H (  8)  4.063611  2.684110  2.163808  2.514456  3.477344  4.750021
   H (  9)  4.437664  3.310705  2.175481  3.630168  2.929295  4.517179
   H ( 10)  4.437624  3.310684  2.175475  3.630107  2.929237  4.517162
   C ( 11)  1.440700  2.536494  3.739691  2.874084  3.925771  2.792358
   H ( 12)  1.800342  2.467833  3.830434  2.463569  4.298428  3.429441
   H ( 13)  2.295636  3.498676  4.667273  3.812858  4.703027  3.318603
   H ( 14)  2.176503  2.880644  4.136415  2.937866  4.512865  3.586070
   H ( 15)  3.609401  3.410833  2.263991  4.406410  1.096624  2.496241
             C (  7)   H (  8)   H (  9)   H ( 10)   C ( 11)   H ( 12)
   H (  8)  1.107175
   H (  9)  1.110080  1.787661
   H ( 10)  1.110043  1.787663  1.784734
   C ( 11)  5.076918  5.165920  5.791187  5.675058
   H ( 12)  5.013494  4.919635  5.664086  5.757117  1.080036
   H ( 13)  6.041418  6.145720  6.671875  6.685472  1.079999  1.527503
   H ( 14)  5.321442  5.264803  6.171617  5.811721  1.079995  1.527556
   H ( 15)  2.977332  4.030408  3.076236  3.076196  4.961311  5.378529
             H ( 13)   H ( 14)
   H ( 14)  1.776007
   H ( 15)  5.687007  5.552698
 
 Requested basis set is rimp2-cc-pVTZ
 There are 250 shells and 848 basis functions
 A cutoff of  1.0D-10 yielded   6183 shell pairs
 There are     45297 function pairs (     58254 Cartesian)
 Smallest overlap matrix eigenvalue = 9.37E-05

 Scale SEOQF with 1.000000e-01/1.000000e-01/1.000000e-01

 Standard Electronic Orientation quadrupole field applied
 Nucleus-field energy     =     0.0000000021 hartrees
 Guess from superposition of atomic densities
 Warning:  Energy on first SCF cycle will be non-variational
 SAD guess density has 60.000000 electrons

 -----------------------------------------------------------------------
  General SCF calculation program by
  Eric Jon Sundstrom, Paul Horn, Yuezhi Mao, Dmitri Zuev, Alec White,
  David Stuck, Shaama M.S., Shane Yost, Joonho Lee, David Small,
  Daniel Levine, Susi Lehtola, Hugh Burton, Evgeny Epifanovsky,
  Bang C. Huynh
 -----------------------------------------------------------------------
 Hartree-Fock
 A restricted SCF calculation will be
 performed using DIIS
 SCF converges when DIIS error is below 1.0e-06
 ---------------------------------------
  Cycle       Energy         DIIS error
 ---------------------------------------
    1    -632.1032626196      2.92e-02  
    2    -629.3413245095      1.91e-03  
    3    -629.4107105641      6.45e-04  
    4    -629.4177291403      3.34e-04  
    5    -629.4196526081      6.20e-05  
    6    -629.4197788189      2.47e-05  
    7    -629.4198088441      1.11e-05  
    8    -629.4198174498      4.94e-06  
    9    -629.4198189309      1.69e-06  
   10    -629.4198191098      5.49e-07  Convergence criterion met
 ---------------------------------------
 SCF time:   CPU 143.19s  wall 144.00s 

************** Final PCM Free Energy Summary **************
 G_electrostatic  =      -0.00557883 hartree =      -3.50077058 kcal/mol
 G_cavitation     =       0.00000000 hartree =       0.00000000 kcal/mol
 G_dispersion     =       0.00000000 hartree =       0.00000000 kcal/mol
 G_repulsion      =       0.00000000 hartree =       0.00000000 kcal/mol
 --------------------------------------------------
 Non-electrostatic Free Energy =       0.00000000 hartree =       0.00000000 kcal/mol
 Total                         =      -0.00557883 hartree =      -3.50077058 kcal/mol
 --------------------------------------------------
 SCF Energy (H0 + V/2)                       =    -629.41981911 
 Solute Internal Energy (H0)                 =    -629.41424028 
 Total Free Energy (H0 + V/2 + non-elec)     =    -629.41981911 hartree
                                             = -394966.89772648 kcal/mol
***********************************************************

 SCF   energy in the final basis set =     -629.4198191098
 Total energy in the final basis set =     -629.4198191098


 --------------------------------------------------------------
  Generalized many-body perturbation theory program
  by Joonho Lee, Fazle Rob, Xintian Feng, Evgeny Epifanovsky

 No regularization used 
 (reg. param. = 0.0000e+00)
  (P|Q)^-1/2 Time:  CPU 0.48 s  wall 0.48 s

 In RI-MP2 calculation: 
 # of frozen core orbitals: 11

 Components of the RIMP2 correlation energy:
        aaaa    correlation energy =        -0.1457672620 a.u.
        abab    correlation energy =        -0.8870550711 a.u.
        bbbb    correlation energy =        -0.1457672620 a.u.
        non-Brillouin singles      =        -0.0000000000 a.u.
        total same-spin energy     =        -0.2915345240 a.u.
        total opposite-spin energy =        -0.8870550711 a.u.

 Total  RIMP2   correlation energy =        -1.1785895951 a.u.
        RIMP2         total energy =      -630.5984087048 a.u.

 RI-MP2 Energy Time:  CPU 11.04 s  wall 11.07 s
 
 --------------------------------------------------------------
 
                    Orbital Energies (a.u.)
 --------------------------------------------------------------
 
 Alpha MOs
 -- Occupied --
-91.9752 -11.2792 -11.2545 -11.2474 -11.2312 -11.2272 -11.2175  -8.9753
 -6.6562  -6.6556  -6.6551  -1.1608  -1.0545  -0.9989  -0.9398  -0.8840
 -0.7424  -0.7220  -0.6476  -0.5912  -0.5762  -0.5668  -0.5590  -0.5429
 -0.5102  -0.4891  -0.4648  -0.4429  -0.3375  -0.2966
 -- Virtual --
  0.1043   0.1448   0.1495   0.1763   0.1791   0.1898   0.2097   0.2223
  0.2355   0.2426   0.2553   0.2640   0.2991   0.3208   0.3425   0.3509
  0.3849   0.3891   0.4121   0.4184   0.4323   0.4477   0.4745   0.4866
  0.4931   0.5030   0.5247   0.5310   0.5405   0.5463   0.5685   0.5857
  0.5989   0.6066   0.6125   0.6207   0.6355   0.6366   0.6489   0.6522
  0.6597   0.6668   0.6819   0.7005   0.7307   0.7522   0.7694   0.7802
  0.8088   0.8318   0.8464   0.8614   0.8678   0.8890   0.9182   0.9329
  0.9544   0.9736   0.9969   1.0181   1.0315   1.0460   1.0628   1.0687
  1.0849   1.0867   1.0984   1.1349   1.1604   1.1804   1.2021   1.2092
  1.2164   1.2327   1.2535   1.2645   1.2736   1.2939   1.3160   1.3330
  1.3437   1.3673   1.3938   1.4040   1.4228   1.4326   1.4557   1.4838
  1.4954   1.5162   1.5253   1.5401   1.5463   1.5639   1.5758   1.5803
  1.5997   1.6385   1.6505   1.6820   1.6945   1.7058   1.7108   1.7342
  1.7483   1.7886   1.8014   1.8296   1.8866   1.9129   1.9289   1.9565
  1.9913   2.0399   2.0972   2.1484   2.1829   2.1976   2.2142   2.2237
  2.2640   2.2875   2.3654   2.4131   2.4675   2.4861   2.5335   2.5486
  2.5792   2.5904   2.6426   2.6693   2.6792   2.6839   2.7077   2.7364
  2.7510   2.7602   2.7666   2.7898   2.8091   2.8535   2.8624   2.8873
  2.9075   2.9321   2.9685   2.9803   2.9861   3.0086   3.0389   3.0416
  3.0900   3.1068   3.1131   3.1297   3.1499   3.1575   3.1625   3.2011
  3.2124   3.2342   3.2655   3.2933   3.2990   3.3095   3.3210   3.3341
  3.3355   3.3552   3.3811   3.3908   3.4015   3.4235   3.4297   3.4366
  3.4489   3.4741   3.4893   3.5037   3.5174   3.5294   3.5376   3.5615
  3.5766   3.5921   3.6089   3.6161   3.6285   3.6382   3.6675   3.6818
  3.6834   3.7150   3.7174   3.7250   3.7588   3.7673   3.7879   3.7958
  3.8250   3.8394   3.8482   3.8850   3.8967   3.9139   3.9425   3.9611
  3.9703   3.9875   4.0132   4.0203   4.0424   4.0646   4.1012   4.1065
  4.1189   4.1321   4.1567   4.1814   4.2142   4.2238   4.2330   4.2579
  4.2812   4.2872   4.3072   4.3313   4.3409   4.3719   4.3930   4.4010
  4.4131   4.4298   4.4528   4.4643   4.4851   4.5120   4.5423   4.5870
  4.6158   4.6194   4.6360   4.6842   4.7128   4.7272   4.7451   4.8000
  4.8191   4.8329   4.8907   4.8971   4.9076   4.9527   5.0751   5.1063
  5.1196   5.1363   5.1488   5.1934   5.2271   5.2624   5.2838   5.3195
  5.3645   5.3975   5.4131   5.4423   5.4712   5.4926   5.5542   5.5593
  5.5770   5.6243   5.6501   5.6740   5.7099   5.8128   5.8453   5.8771
  5.9392   5.9865   6.0986   6.1440   6.2272   6.2490   6.2908   6.3983
  6.4301   6.5448   9.2592  11.3707  12.9241  13.7787  14.1762  14.6173
 --------------------------------------------------------------
 
          Ground-State Mulliken Net Atomic Charges

     Atom                 Charge (a.u.)
  ----------------------------------------
      1 C                     0.057410
      2 C                    -0.288525
      3 C                     0.043638
      4 H                     0.177349
      5 C                    -0.261621
      6 S                    -0.003814
      7 C                    -0.273759
      8 H                     0.101127
      9 H                     0.107083
     10 H                     0.107340
     11 C                    -0.379518
     12 H                     0.128608
     13 H                     0.158311
     14 H                     0.134356
     15 H                     0.192016
  ----------------------------------------
  Sum of atomic charges =     0.000000

 -----------------------------------------------------------------
                    Cartesian Multipole Moments
 -----------------------------------------------------------------
    Charge (ESU x 10^10)
                -0.0000
    Dipole Moment (Debye)
         X      -0.0817      Y      -0.3229      Z       2.0160
       Tot       2.0433
    Quadrupole Moments (Debye-Ang)
        XX     -53.2517     XY       3.3200     YY     -42.7121
        XZ       0.3155     YZ      -0.6902     ZZ     -48.7757
    Octopole Moments (Debye-Ang^2)
       XXX     -27.9364    XXY     -29.8605    XYY      -6.8591
       YYY     -78.2014    XXZ      -2.2667    XYZ      -1.7297
       YYZ      -2.7194    XZZ      -7.6897    YZZ     -23.7250
       ZZZ       0.6897
    Hexadecapole Moments (Debye-Ang^3)
      XXXX    -118.4397   XXXY     -82.3189   XXYY    -154.5858
      XYYY     -62.8904   YYYY    -777.6529   XXXZ     -23.3403
      XXYZ     -28.8697   XYYZ      -7.4008   YYYZ     -99.5039
      XXZZ    -106.5060   XYZZ     -22.7762   YYZZ    -209.2177
      XZZZ     -26.4676   YZZZ     -94.3072   ZZZZ    -484.1037
 -----------------------------------------------------------------
 Total job time:  155.23s(wall), 154.58s(cpu) 
 Sun Jul 10 10:17:05 2022

        *************************************************************
        *                                                           *
        *  Thank you very much for using Q-Chem.  Have a nice day.  *
        *                                                           *
        *************************************************************


remove work dirs ./qchem3444973.0 -- ./qchem3444973.-1
rm -rf ./qchem3444973
