You are running Q-Chem version: 5.4.0

#
# job setting
#
local host:  exp-3-21
current dir: /expanse/lustre/scratch/theleonzhang/temp_project/Hydrogenated_Impropers_Test
input file:  Methylthiophene_Phi_10_Theta_230_Methylthiophene_Hydrogenated_Improper.qcin
output file: 
nprocs     : 0
nthreads   : 1
#
# qchem installation setting
#
QC:          /cm/shared/apps/spack/cpu/opt/spack/linux-centos8-zen2/gcc-10.2.0/qchem-5.4-akfmr7b3t57bfs6qan3padb2wnb2i7cl
QCAUX:       /cm/shared/apps/spack/cpu/opt/spack/linux-centos8-zen2/gcc-10.2.0/qchem-5.4-akfmr7b3t57bfs6qan3padb2wnb2i7cl/qcaux
QCPROG:      /cm/shared/apps/spack/cpu/opt/spack/linux-centos8-zen2/gcc-10.2.0/qchem-5.4-akfmr7b3t57bfs6qan3padb2wnb2i7cl/exe/qcprog.exe_s
QCPROG_S:    /cm/shared/apps/spack/cpu/opt/spack/linux-centos8-zen2/gcc-10.2.0/qchem-5.4-akfmr7b3t57bfs6qan3padb2wnb2i7cl/exe/qcprog.exe_s
PARALLEL:    -DSERIAL
QCMPI:       mpich
#
# qchem directory setting
#
qcrun:       qchem1404966
QCSCRATCH:   .
QCLOCALSCR:  
QCTMPDIR:    .
QCFILEPREF:  ./qchem1404966
QCSAVEDIR:   
workdirs:    ./qchem1404966
workdir0:    ./qchem1404966
partmpdirs =  
#
# parallel setting
#
QCRSH:           ssh
QCMPI:           mpich
QCMPIRUN:        /cm/shared/apps/spack/cpu/opt/spack/linux-centos8-zen2/gcc-10.2.0/qchem-5.4-akfmr7b3t57bfs6qan3padb2wnb2i7cl/bin/mpi/mpirun_qchem
QCMACHINEFILE:   ./qchem1404966/hostfile

#
# env setting
#
exported envs:   QC QCAUX QCSCRATCH QCRUNNAME QCFILEPREF QCPROG QCPROG_S GUIFILE

Running Job 1 of 1 Methylthiophene_Phi_10_Theta_230_Methylthiophene_Hydrogenated_Improper.qcin
qchem Methylthiophene_Phi_10_Theta_230_Methylthiophene_Hydrogenated_Improper.qcin_1404966.0 ./qchem1404966/ 0
/cm/shared/apps/spack/cpu/opt/spack/linux-centos8-zen2/gcc-10.2.0/qchem-5.4-akfmr7b3t57bfs6qan3padb2wnb2i7cl/exe/qcprog.exe_s Methylthiophene_Phi_10_Theta_230_Methylthiophene_Hydrogenated_Improper.qcin_1404966.0 ./qchem1404966/
                  Welcome to Q-Chem
     A Quantum Leap Into The Future Of Chemistry


 Q-Chem 5.4, Q-Chem, Inc., Pleasanton, CA (2021)

 License issued to: University of California, San Diego (site)

 E. Epifanovsky,  A. T. B. Gilbert,  Xintian Feng,  Joonho Lee,  Yuezhi Mao,  
 N. Mardirossian,  P. Pokhilko,  A. White,  M. Wormit,  M. P. Coons,  
 A. L. Dempwolff,  Zhengting Gan,  D. Hait,  P. R. Horn,  L. D. Jacobson,  
 I. Kaliman,  J. Kussmann,  A. W. Lange,  Ka Un Lao,  D. S. Levine,  Jie Liu,  
 S. C. McKenzie,  A. F. Morrison,  K. Nanda,  F. Plasser,  D. R. Rehn,  
 M. L. Vidal,  Zhi-Qiang You,  Ying Zhu,  B. Alam,  B. Albrecht,  
 A. Aldossary,  E. Alguire,  J. H. Andersen,  D. Barton,  K. Begam,  A. Behn,  
 Y. A. Bernard,  E. J. Berquist,  H. Burton,  A. Carreras,  K. Carter-Fenk,  
 R. Chakraborty,  A. D. Chien,  K. D. Closser,  V. Cofer-Shabica,  
 S. Dasgupta,  Jia Deng,  M. de Wergifosse,  M. Diedenhofen,  Hainam Do,  
 S. Ehlert,  Po-Tung Fang,  S. Fatehi,  Qingguo Feng,  J. Gayvert,  
 Qinghui Ge,  G. Gidofalvi,  M. Goldey,  J. Gomes,  C. Gonzalez-Espinoza,  
 S. Gulania,  A. Gunina,  M. W. D. Hanson-Heine,  P. H. P. Harbach,  
 A. W. Hauser,  M. F. Herbst,  M. Hernandez Vera,  M. Hodecker,  
 Z. C. Holden,  S. Houck,  Xunkun Huang,  Kerwin Hui,  B. C. Huynh,  
 M. Ivanov,  Hyunjun Ji,  Hanjie Jiang,  B. Kaduk,  S. Kaehler,  
 K. Khistyaev,  Jaehoon Kim,  P. Klunzinger,  Z. Koczor-Benda,  
 Joong Hoon Koh,  D. Kosenkov,  L. Koulias,  T. Kowalczyk,  C. M. Krauter,  
 K. Kue,  A. Kunitsa,  T. Kus,  A. Landau,  K. V. Lawler,  D. Lefrancois,  
 S. Lehtola,  Rain Li,  Yi-Pei Li,  Jiashu Liang,  M. Liebenthal,  
 Hung-Hsuan Lin,  You-Sheng Lin,  Fenglai Liu,  Kuan-Yu Liu,  
 M. Loipersberger,  A. Luenser,  A. Manjanath,  P. Manohar,  E. Mansoor,  
 S. F. Manzer,  Shan-Ping Mao,  A. V. Marenich,  T. Markovich,  S. Mason,  
 S. A. Maurer,  P. F. McLaughlin,  M. F. S. J. Menger,  J.-M. Mewes,  
 S. A. Mewes,  P. Morgante,  J. W. Mullinax,  T. S. Nguyen-Beck,  
 K. J. Oosterbaan,  G. Paran,  Alexander C. Paul,  Suranjan K. Paul,  
 F. Pavosevic,  Zheng Pei,  S. Prager,  E. I. Proynov,  E. Ramos,  B. Rana,  
 A. E. Rask,  A. Rettig,  R. M. Richard,  F. Rob,  E. Rossomme,  T. Scheele,  
 M. Scheurer,  M. Schneider,  N. Sergueev,  S. M. Sharada,  W. Skomorowski,  
 D. W. Small,  C. J. Stein,  Yu-Chuan Su,  E. J. Sundstrom,  Zhen Tao,  
 J. Thirman,  T. Tsuchimochi,  N. M. Tubman,  S. P. Veccham,  O. Vydrov,  
 J. Wenzel,  J. Witte,  A. Yamada,  Kun Yao,  S. Yeganeh,  S. R. Yost,  
 A. Zech,  Igor Ying Zhang,  Xing Zhang,  Yu Zhang,  D. Zuev,  
 A. Aspuru-Guzik,  A. T. Bell,  N. A. Besley,  K. B. Bravaya,  B. R. Brooks,  
 D. Casanova,  Jeng-Da Chai,  S. Coriani,  C. J. Cramer,  
 A. E. DePrince, III,  R. A. DiStasio Jr.,  A. Dreuw,  B. D. Dunietz,  
 T. R. Furlani,  W. A. Goddard III,  S. Grimme,  S. Hammes-Schiffer,  
 T. Head-Gordon,  W. J. Hehre,  Chao-Ping Hsu,  T.-C. Jagau,  Yousung Jung,  
 A. Klamt,  Jing Kong,  D. S. Lambrecht,  WanZhen Liang,  N. J. Mayhall,  
 C. W. McCurdy,  J. B. Neaton,  C. Ochsenfeld,  J. A. Parkhill,  R. Peverati,  
 V. A. Rassolov,  Yihan Shao,  L. V. Slipchenko,  T. Stauch,  R. P. Steele,  
 J. E. Subotnik,  A. J. W. Thom,  A. Tkatchenko,  D. G. Truhlar,  
 T. Van Voorhis,  T. A. Wesolowski,  K. B. Whaley,  H. L. Woodcock III,  
 P. M. Zimmerman,  S. Faraji,  P. M. W. Gill,  M. Head-Gordon,  
 J. M. Herbert,  A. I. Krylov

 Contributors to earlier versions of Q-Chem not listed above: 
 R. D. Adamson,  B. Austin,  R. Baer,  J. Baker,  G. J. O. Beran,  
 K. Brandhorst,  S. T. Brown,  E. F. C. Byrd,  A. K. Chakraborty,  
 G. K. L. Chan,  Chun-Min Chang,  Yunqing Chen,  C.-L. Cheng,  
 Siu Hung Chien,  D. M. Chipman,  D. L. Crittenden,  H. Dachsel,  
 R. J. Doerksen,  A. D. Dutoi,  R. G. Edgar,  J. Fosso-Tande,  
 L. Fusti-Molnar,  D. Ghosh,  A. Ghysels,  A. Golubeva-Zadorozhnaya,  
 J. Gonthier,  M. S. Gordon,  S. R. Gwaltney,  G. Hawkins,  J. E. Herr,  
 A. Heyden,  S. Hirata,  E. G. Hohenstein,  G. Kedziora,  F. J. Keil,  
 C. Kelley,  Jihan Kim,  R. A. King,  R. Z. Khaliullin,  P. P. Korambath,  
 W. Kurlancheek,  A. Laurent,  A. M. Lee,  M. S. Lee,  S. V. Levchenko,  
 Ching Yeh Lin,  D. Liotard,  E. Livshits,  R. C. Lochan,  I. Lotan,  
 L. A. Martinez-Martinez,  P. E. Maslen,  N. Nair,  D. P. O'Neill,  
 D. Neuhauser,  E. Neuscamman,  C. M. Oana,  R. Olivares-Amaya,  R. Olson,  
 T. M. Perrine,  B. Peters,  P. A. Pieniazek,  A. Prociuk,  Y. M. Rhee,  
 J. Ritchie,  M. A. Rohrdanz,  E. Rosta,  N. J. Russ,  H. F. Schaefer III,  
 M. W. Schmidt,  N. E. Schultz,  S. Sharma,  N. Shenvi,  C. D. Sherrill,  
 A. C. Simmonett,  A. Sodt,  T. Stein,  D. Stuck,  K. S. Thanthiriwatte,  
 V. Vanovschi,  L. Vogt,  Tao Wang,  A. Warshel,  M. A. Watson,  
 C. F. Williams,  Q. Wu,  X. Xu,  Jun Yang,  W. Zhang,  Yan Zhao

 Please cite Q-Chem as follows:
 Y. Shao et al., Mol. Phys. 113, 184-215 (2015)
 DOI: 10.1080/00268976.2014.952696

 Q-Chem 5.4.0 for Intel X86 EM64T Linux

 Parts of Q-Chem use Armadillo 9.800.1 (Horizon Scraper).
 http://arma.sourceforge.net/

 Q-Chem begins on Sun Jul 10 09:16:06 2022  

 Host: 
0

     Scratch files written to ./qchem1404966//
 May1621 |scratch|qcdevops|jenkins|workspace|build_RNUM    
 Processing $rem in /cm/shared/apps/spack/cpu/opt/spack/linux-centos8-zen2/gcc-10.2.0/qchem-5.4-akfmr7b3t57bfs6qan3padb2wnb2i7cl/config/preferences:
 Processing $rem in /home/theleonzhang/.qchemrc:
 Symmetry turned off for PCM/SM12/SMD calculation
 Core orbitals will be frozen

 Checking the input file for inconsistencies... 	...done.

--------------------------------------------------------------
User input:
--------------------------------------------------------------
$molecule
0 1
C	-0.121370	-0.566010	0.011685
C	0.028630	0.284490	1.111085
C	0.268930	1.647390	0.788385
H	-0.035470	-0.078710	2.147785
C	0.307330	1.864690	-0.600815
S	0.042330	0.362090	-1.475115
C	0.457830	2.718590	1.826285
H	0.383930	2.299390	2.848385
H	-0.307370	3.517890	1.737885
H	1.450330	3.207890	1.737885
C	-0.121370	-2.006710	0.011685
H	0.572730	-2.006410	0.839085
H	-0.748970	-2.710510	0.538185
H	0.604130	-2.525610	-0.597115
H	0.472130	2.799390	-1.149915
$end

$rem
JOBTYPE		SP
EXCHANGE	HF
CORRELATION	pRIMP2
BASIS		cc-pvtz
METHOD		rimp2
AUX_BASIS	rimp2-cc-pvtz
SOLVENT_METHOD	PCM
PURECART	11111
SYMMETRY	false
MEM_TOTAL	110000
SCF_CONVERGENCE = 6
THRESH=10
$end



$solvent
dielectric 4.90
$end
--------------------------------------------------------------
 ----------------------------------------------------------------
             Standard Nuclear Orientation (Angstroms)
    I     Atom           X                Y                Z
 ----------------------------------------------------------------
    1      C      -0.1213700000    -0.5660100000     0.0116850000
    2      C       0.0286300000     0.2844900000     1.1110850000
    3      C       0.2689300000     1.6473900000     0.7883850000
    4      H      -0.0354700000    -0.0787100000     2.1477850000
    5      C       0.3073300000     1.8646900000    -0.6008150000
    6      S       0.0423300000     0.3620900000    -1.4751150000
    7      C       0.4578300000     2.7185900000     1.8262850000
    8      H       0.3839300000     2.2993900000     2.8483850000
    9      H      -0.3073700000     3.5178900000     1.7378850000
   10      H       1.4503300000     3.2078900000     1.7378850000
   11      C      -0.1213700000    -2.0067100000     0.0116850000
   12      H       0.5727300000    -2.0064100000     0.8390850000
   13      H      -0.7489700000    -2.7105100000     0.5381850000
   14      H       0.6041300000    -2.5256100000    -0.5971150000
   15      H       0.4721300000     2.7993900000    -1.1499150000
 ----------------------------------------------------------------
 Nuclear Repulsion Energy =         344.58165006 hartrees
 There are       30 alpha and       30 beta electrons

 Q-Chem warning in module forms1/BasisType.C, line 2236:

 You are not using the predefined 5D/6D in this basis set.

 Requested basis set is cc-pVTZ
 There are 120 shells and 326 basis functions

 Total QAlloc Memory Limit 110000 MB
 Mega-Array Size       188 MB
 MEM_STATIC part       192 MB
 Discretize the solute cavity surface with Lebedev spheres
	Using 110 Lebedev grid points for each H atom
	Using 194 Lebedev grid points for other atoms
	Atomic van der Waals radii will be scaled by 1.20
 Remove points where switching function is < 1.0e-08
 Keep 1064 surface tesserae and discard 1174 interior tesserae
 Molecular Surface Area = 158.691 Angst**2

                       Distance Matrix (Angstroms)
             C (  1)   C (  2)   C (  3)   H (  4)   C (  5)   S (  6)
   C (  2)  1.398045
   C (  3)  2.377969  1.421047
   H (  4)  2.192661  1.100350  2.218118
   C (  5)  2.543077  2.346339  1.406617  3.383654
   S (  6)  1.760324  2.587400  2.612810  3.650447  1.758531
   C (  7)  3.796952  2.573046  1.503459  2.858600  2.577326  4.077373
   H (  8)  4.063584  2.684077  2.163777  2.514378  3.477328  4.749997
   H (  9)  4.437635  3.310687  2.175418  3.630080  2.929239  4.517160
   H ( 10)  4.437604  3.310646  2.175412  3.630063  2.929190  4.517124
   C ( 11)  1.440700  2.545737  3.756068  2.878799  3.942928  2.801533
   H ( 12)  1.800310  2.370285  3.666759  2.408035  4.138739  3.353601
   H ( 13)  2.295640  3.146888  4.482188  3.166428  4.831723  3.757713
   H ( 14)  2.176470  3.338534  4.409750  3.732410  4.400322  3.070068
   H ( 15)  3.609359  3.410797  2.263935  4.406353  1.096510  2.496180
             C (  7)   H (  8)   H (  9)   H ( 10)   C ( 11)   H ( 12)
   H (  8)  1.107194
   H (  9)  1.110057  1.787694
   H ( 10)  1.110083  1.787678  1.784828
   C ( 11)  5.094772  5.181186  5.790990  5.713323
   H ( 12)  4.828394  4.755297  5.665713  5.363483  1.079984
   H ( 13)  5.708826  5.632014  6.358243  6.426792  1.080009  1.527478
   H ( 14)  5.778919  5.933008  6.542702  6.248304  1.079928  1.527490
   H ( 15)  2.977331  4.030407  3.076240  3.076221  4.979975  5.202111
             H ( 13)   H ( 14)
   H ( 14)  1.775943
   H ( 15)  5.890651  5.355244
 
 Requested basis set is rimp2-cc-pVTZ
 There are 250 shells and 848 basis functions
 A cutoff of  1.0D-10 yielded   6193 shell pairs
 There are     45321 function pairs (     58288 Cartesian)
 Smallest overlap matrix eigenvalue = 9.98E-05

 Scale SEOQF with 1.000000e+00/1.000000e-01/1.000000e-01

 Standard Electronic Orientation quadrupole field applied
 Nucleus-field energy     =     0.0000000043 hartrees
 Guess from superposition of atomic densities
 Warning:  Energy on first SCF cycle will be non-variational
 SAD guess density has 60.000000 electrons

 -----------------------------------------------------------------------
  General SCF calculation program by
  Eric Jon Sundstrom, Paul Horn, Yuezhi Mao, Dmitri Zuev, Alec White,
  David Stuck, Shaama M.S., Shane Yost, Joonho Lee, David Small,
  Daniel Levine, Susi Lehtola, Hugh Burton, Evgeny Epifanovsky,
  Bang C. Huynh
 -----------------------------------------------------------------------
 Hartree-Fock
 A restricted SCF calculation will be
 performed using DIIS
 SCF converges when DIIS error is below 1.0e-06
 ---------------------------------------
  Cycle       Energy         DIIS error
 ---------------------------------------
    1    -632.1061525172      2.92e-02  
    2    -629.3423881195      1.93e-03  
    3    -629.4122628484      6.64e-04  
    4    -629.4194893859      3.43e-04  
    5    -629.4215260931      6.22e-05  
    6    -629.4216539849      2.52e-05  
    7    -629.4216848171      1.12e-05  
    8    -629.4216936282      5.05e-06  
    9    -629.4216951164      1.68e-06  
   10    -629.4216952931      5.55e-07  Convergence criterion met
 ---------------------------------------
 SCF time:   CPU 143.90s  wall 146.00s 

************** Final PCM Free Energy Summary **************
 G_electrostatic  =      -0.00551934 hartree =      -3.46343896 kcal/mol
 G_cavitation     =       0.00000000 hartree =       0.00000000 kcal/mol
 G_dispersion     =       0.00000000 hartree =       0.00000000 kcal/mol
 G_repulsion      =       0.00000000 hartree =       0.00000000 kcal/mol
 --------------------------------------------------
 Non-electrostatic Free Energy =       0.00000000 hartree =       0.00000000 kcal/mol
 Total                         =      -0.00551934 hartree =      -3.46343896 kcal/mol
 --------------------------------------------------
 SCF Energy (H0 + V/2)                       =    -629.42169529 
 Solute Internal Energy (H0)                 =    -629.41617595 
 Total Free Energy (H0 + V/2 + non-elec)     =    -629.42169529 hartree
                                             = -394968.07504928 kcal/mol
***********************************************************

 SCF   energy in the final basis set =     -629.4216952931
 Total energy in the final basis set =     -629.4216952931


 --------------------------------------------------------------
  Generalized many-body perturbation theory program
  by Joonho Lee, Fazle Rob, Xintian Feng, Evgeny Epifanovsky

 No regularization used 
 (reg. param. = 0.0000e+00)
  (P|Q)^-1/2 Time:  CPU 0.48 s  wall 0.48 s

 In RI-MP2 calculation: 
 # of frozen core orbitals: 11

 Components of the RIMP2 correlation energy:
        aaaa    correlation energy =        -0.1455932772 a.u.
        abab    correlation energy =        -0.8864214938 a.u.
        bbbb    correlation energy =        -0.1455932772 a.u.
        non-Brillouin singles      =        -0.0000000000 a.u.
        total same-spin energy     =        -0.2911865544 a.u.
        total opposite-spin energy =        -0.8864214938 a.u.

 Total  RIMP2   correlation energy =        -1.1776080481 a.u.
        RIMP2         total energy =      -630.5993033412 a.u.

 RI-MP2 Energy Time:  CPU 11.04 s  wall 11.07 s
 
 --------------------------------------------------------------
 
                    Orbital Energies (a.u.)
 --------------------------------------------------------------
 
 Alpha MOs
 -- Occupied --
-91.9776 -11.2809 -11.2531 -11.2472 -11.2285 -11.2270 -11.2178  -8.9774
 -6.6583  -6.6578  -6.6572  -1.1609  -1.0548  -0.9988  -0.9399  -0.8836
 -0.7424  -0.7220  -0.6491  -0.5900  -0.5748  -0.5667  -0.5594  -0.5431
 -0.5089  -0.4867  -0.4676  -0.4477  -0.3369  -0.2963
 -- Virtual --
  0.1059   0.1450   0.1509   0.1761   0.1827   0.1896   0.2075   0.2232
  0.2350   0.2435   0.2512   0.2674   0.2954   0.3215   0.3436   0.3559
  0.3810   0.3920   0.4054   0.4156   0.4351   0.4540   0.4705   0.4907
  0.4970   0.5067   0.5156   0.5346   0.5426   0.5522   0.5638   0.5944
  0.5996   0.6082   0.6148   0.6231   0.6401   0.6432   0.6458   0.6493
  0.6555   0.6627   0.6799   0.7080   0.7334   0.7463   0.7595   0.7848
  0.8009   0.8296   0.8365   0.8507   0.8699   0.8957   0.9139   0.9289
  0.9355   0.9585   1.0005   1.0130   1.0275   1.0591   1.0634   1.0706
  1.0801   1.0998   1.1097   1.1585   1.1642   1.1818   1.1961   1.2090
  1.2264   1.2291   1.2549   1.2562   1.2664   1.2765   1.3240   1.3349
  1.3480   1.3900   1.3924   1.4026   1.4223   1.4367   1.4618   1.4823
  1.4983   1.5093   1.5282   1.5313   1.5490   1.5615   1.5703   1.5912
  1.6001   1.6238   1.6669   1.6747   1.6897   1.6992   1.7156   1.7391
  1.7564   1.7869   1.8161   1.8253   1.8796   1.9154   1.9242   1.9455
  1.9996   2.0385   2.0946   2.1396   2.1828   2.1962   2.2260   2.2482
  2.2696   2.2887   2.3580   2.4096   2.4567   2.4911   2.5300   2.5608
  2.5711   2.6082   2.6312   2.6605   2.6851   2.6911   2.7032   2.7339
  2.7523   2.7609   2.7697   2.7861   2.8094   2.8436   2.8673   2.8842
  2.8937   2.9239   2.9429   2.9685   2.9762   3.0132   3.0388   3.0447
  3.0842   3.1138   3.1214   3.1357   3.1555   3.1613   3.1782   3.1866
  3.2351   3.2463   3.2583   3.2791   3.2927   3.3038   3.3143   3.3294
  3.3351   3.3700   3.3812   3.3937   3.4128   3.4211   3.4362   3.4396
  3.4550   3.4584   3.4770   3.4964   3.5174   3.5262   3.5300   3.5760
  3.5819   3.5921   3.5949   3.6215   3.6333   3.6393   3.6605   3.6737
  3.6897   3.6964   3.7236   3.7481   3.7710   3.7796   3.7885   3.7997
  3.8086   3.8339   3.8614   3.8738   3.8923   3.9226   3.9452   3.9593
  3.9688   3.9842   4.0064   4.0235   4.0644   4.0694   4.1024   4.1049
  4.1321   4.1389   4.1576   4.1792   4.2154   4.2230   4.2356   4.2391
  4.2847   4.2880   4.3132   4.3316   4.3441   4.3768   4.3913   4.4024
  4.4101   4.4189   4.4392   4.4620   4.4765   4.5159   4.5634   4.5864
  4.5874   4.6283   4.6382   4.6696   4.7253   4.7410   4.7718   4.7873
  4.8114   4.8309   4.8578   4.8863   4.9323   4.9520   5.0804   5.1053
  5.1113   5.1333   5.1843   5.1944   5.2377   5.2598   5.2810   5.3217
  5.3681   5.4061   5.4134   5.4435   5.4594   5.5045   5.5520   5.5627
  5.5989   5.6251   5.6401   5.6900   5.7053   5.8260   5.8413   5.8592
  5.8914   6.0588   6.0666   6.1227   6.2277   6.2522   6.2969   6.3693
  6.4601   6.4920   9.1616  11.4344  12.9350  13.8980  14.1785  14.4147
 --------------------------------------------------------------
 
          Ground-State Mulliken Net Atomic Charges

     Atom                 Charge (a.u.)
  ----------------------------------------
      1 C                     0.061259
      2 C                    -0.273662
      3 C                     0.034294
      4 H                     0.176129
      5 C                    -0.263187
      6 S                    -0.004028
      7 C                    -0.273903
      8 H                     0.101146
      9 H                     0.107298
     10 H                     0.107022
     11 C                    -0.386388
     12 H                     0.135751
     13 H                     0.149780
     14 H                     0.135787
     15 H                     0.192702
  ----------------------------------------
  Sum of atomic charges =     0.000000

 -----------------------------------------------------------------
                    Cartesian Multipole Moments
 -----------------------------------------------------------------
    Charge (ESU x 10^10)
                -0.0000
    Dipole Moment (Debye)
         X       0.6823      Y      -0.3579      Z       1.9621
       Tot       2.1079
    Quadrupole Moments (Debye-Ang)
        XX     -53.8501     XY       0.5625     YY     -42.4425
        XZ      -0.2868     YZ      -0.8728     ZZ     -48.7069
    Octopole Moments (Debye-Ang^2)
       XXX     -19.6514    XXY     -30.8871    XYY      -1.5415
       YYY     -79.2296    XXZ      -2.0927    XYZ       0.7792
       YYZ      -1.7679    XZZ      -5.4820    YZZ     -24.3800
       ZZZ       0.6213
    Hexadecapole Moments (Debye-Ang^3)
      XXXX     -95.5839   XXXY     -53.3826   XXYY    -158.3621
      XYYY     -46.4787   YYYY    -798.0580   XXXZ     -15.3657
      XXYZ     -29.4650   XYYZ     -11.3128   YYYZ    -106.4674
      XXZZ    -103.4367   XYZZ     -14.3501   YYZZ    -212.0997
      XZZZ     -16.9796   YZZZ     -97.1289   ZZZZ    -483.6768
 -----------------------------------------------------------------
 Total job time:  158.25s(wall), 155.29s(cpu) 
 Sun Jul 10 09:18:44 2022

        *************************************************************
        *                                                           *
        *  Thank you very much for using Q-Chem.  Have a nice day.  *
        *                                                           *
        *************************************************************


remove work dirs ./qchem1404966.0 -- ./qchem1404966.-1
rm -rf ./qchem1404966
You are running Q-Chem version: 5.4.0

#
# job setting
#
local host:  exp-3-07
current dir: /expanse/lustre/scratch/theleonzhang/temp_project/Hydrogenated_Impropers_Test
input file:  Methylthiophene_Phi_10_Theta_230_Methylthiophene_Hydrogenated_Improper.qcin
output file: 
nprocs     : 0
nthreads   : 1
#
# qchem installation setting
#
QC:          /cm/shared/apps/spack/cpu/opt/spack/linux-centos8-zen2/gcc-10.2.0/qchem-5.4-akfmr7b3t57bfs6qan3padb2wnb2i7cl
QCAUX:       /cm/shared/apps/spack/cpu/opt/spack/linux-centos8-zen2/gcc-10.2.0/qchem-5.4-akfmr7b3t57bfs6qan3padb2wnb2i7cl/qcaux
QCPROG:      /cm/shared/apps/spack/cpu/opt/spack/linux-centos8-zen2/gcc-10.2.0/qchem-5.4-akfmr7b3t57bfs6qan3padb2wnb2i7cl/exe/qcprog.exe_s
QCPROG_S:    /cm/shared/apps/spack/cpu/opt/spack/linux-centos8-zen2/gcc-10.2.0/qchem-5.4-akfmr7b3t57bfs6qan3padb2wnb2i7cl/exe/qcprog.exe_s
PARALLEL:    -DSERIAL
QCMPI:       mpich
#
# qchem directory setting
#
qcrun:       qchem3298557
QCSCRATCH:   .
QCLOCALSCR:  
QCTMPDIR:    .
QCFILEPREF:  ./qchem3298557
QCSAVEDIR:   
workdirs:    ./qchem3298557
workdir0:    ./qchem3298557
partmpdirs =  
#
# parallel setting
#
QCRSH:           ssh
QCMPI:           mpich
QCMPIRUN:        /cm/shared/apps/spack/cpu/opt/spack/linux-centos8-zen2/gcc-10.2.0/qchem-5.4-akfmr7b3t57bfs6qan3padb2wnb2i7cl/bin/mpi/mpirun_qchem
QCMACHINEFILE:   ./qchem3298557/hostfile

#
# env setting
#
exported envs:   QC QCAUX QCSCRATCH QCRUNNAME QCFILEPREF QCPROG QCPROG_S GUIFILE

Running Job 1 of 1 Methylthiophene_Phi_10_Theta_230_Methylthiophene_Hydrogenated_Improper.qcin
qchem Methylthiophene_Phi_10_Theta_230_Methylthiophene_Hydrogenated_Improper.qcin_3298557.0 ./qchem3298557/ 0
/cm/shared/apps/spack/cpu/opt/spack/linux-centos8-zen2/gcc-10.2.0/qchem-5.4-akfmr7b3t57bfs6qan3padb2wnb2i7cl/exe/qcprog.exe_s Methylthiophene_Phi_10_Theta_230_Methylthiophene_Hydrogenated_Improper.qcin_3298557.0 ./qchem3298557/
                  Welcome to Q-Chem
     A Quantum Leap Into The Future Of Chemistry


 Q-Chem 5.4, Q-Chem, Inc., Pleasanton, CA (2021)

 License issued to: University of California, San Diego (site)

 E. Epifanovsky,  A. T. B. Gilbert,  Xintian Feng,  Joonho Lee,  Yuezhi Mao,  
 N. Mardirossian,  P. Pokhilko,  A. White,  M. Wormit,  M. P. Coons,  
 A. L. Dempwolff,  Zhengting Gan,  D. Hait,  P. R. Horn,  L. D. Jacobson,  
 I. Kaliman,  J. Kussmann,  A. W. Lange,  Ka Un Lao,  D. S. Levine,  Jie Liu,  
 S. C. McKenzie,  A. F. Morrison,  K. Nanda,  F. Plasser,  D. R. Rehn,  
 M. L. Vidal,  Zhi-Qiang You,  Ying Zhu,  B. Alam,  B. Albrecht,  
 A. Aldossary,  E. Alguire,  J. H. Andersen,  D. Barton,  K. Begam,  A. Behn,  
 Y. A. Bernard,  E. J. Berquist,  H. Burton,  A. Carreras,  K. Carter-Fenk,  
 R. Chakraborty,  A. D. Chien,  K. D. Closser,  V. Cofer-Shabica,  
 S. Dasgupta,  Jia Deng,  M. de Wergifosse,  M. Diedenhofen,  Hainam Do,  
 S. Ehlert,  Po-Tung Fang,  S. Fatehi,  Qingguo Feng,  J. Gayvert,  
 Qinghui Ge,  G. Gidofalvi,  M. Goldey,  J. Gomes,  C. Gonzalez-Espinoza,  
 S. Gulania,  A. Gunina,  M. W. D. Hanson-Heine,  P. H. P. Harbach,  
 A. W. Hauser,  M. F. Herbst,  M. Hernandez Vera,  M. Hodecker,  
 Z. C. Holden,  S. Houck,  Xunkun Huang,  Kerwin Hui,  B. C. Huynh,  
 M. Ivanov,  Hyunjun Ji,  Hanjie Jiang,  B. Kaduk,  S. Kaehler,  
 K. Khistyaev,  Jaehoon Kim,  P. Klunzinger,  Z. Koczor-Benda,  
 Joong Hoon Koh,  D. Kosenkov,  L. Koulias,  T. Kowalczyk,  C. M. Krauter,  
 K. Kue,  A. Kunitsa,  T. Kus,  A. Landau,  K. V. Lawler,  D. Lefrancois,  
 S. Lehtola,  Rain Li,  Yi-Pei Li,  Jiashu Liang,  M. Liebenthal,  
 Hung-Hsuan Lin,  You-Sheng Lin,  Fenglai Liu,  Kuan-Yu Liu,  
 M. Loipersberger,  A. Luenser,  A. Manjanath,  P. Manohar,  E. Mansoor,  
 S. F. Manzer,  Shan-Ping Mao,  A. V. Marenich,  T. Markovich,  S. Mason,  
 S. A. Maurer,  P. F. McLaughlin,  M. F. S. J. Menger,  J.-M. Mewes,  
 S. A. Mewes,  P. Morgante,  J. W. Mullinax,  T. S. Nguyen-Beck,  
 K. J. Oosterbaan,  G. Paran,  Alexander C. Paul,  Suranjan K. Paul,  
 F. Pavosevic,  Zheng Pei,  S. Prager,  E. I. Proynov,  E. Ramos,  B. Rana,  
 A. E. Rask,  A. Rettig,  R. M. Richard,  F. Rob,  E. Rossomme,  T. Scheele,  
 M. Scheurer,  M. Schneider,  N. Sergueev,  S. M. Sharada,  W. Skomorowski,  
 D. W. Small,  C. J. Stein,  Yu-Chuan Su,  E. J. Sundstrom,  Zhen Tao,  
 J. Thirman,  T. Tsuchimochi,  N. M. Tubman,  S. P. Veccham,  O. Vydrov,  
 J. Wenzel,  J. Witte,  A. Yamada,  Kun Yao,  S. Yeganeh,  S. R. Yost,  
 A. Zech,  Igor Ying Zhang,  Xing Zhang,  Yu Zhang,  D. Zuev,  
 A. Aspuru-Guzik,  A. T. Bell,  N. A. Besley,  K. B. Bravaya,  B. R. Brooks,  
 D. Casanova,  Jeng-Da Chai,  S. Coriani,  C. J. Cramer,  
 A. E. DePrince, III,  R. A. DiStasio Jr.,  A. Dreuw,  B. D. Dunietz,  
 T. R. Furlani,  W. A. Goddard III,  S. Grimme,  S. Hammes-Schiffer,  
 T. Head-Gordon,  W. J. Hehre,  Chao-Ping Hsu,  T.-C. Jagau,  Yousung Jung,  
 A. Klamt,  Jing Kong,  D. S. Lambrecht,  WanZhen Liang,  N. J. Mayhall,  
 C. W. McCurdy,  J. B. Neaton,  C. Ochsenfeld,  J. A. Parkhill,  R. Peverati,  
 V. A. Rassolov,  Yihan Shao,  L. V. Slipchenko,  T. Stauch,  R. P. Steele,  
 J. E. Subotnik,  A. J. W. Thom,  A. Tkatchenko,  D. G. Truhlar,  
 T. Van Voorhis,  T. A. Wesolowski,  K. B. Whaley,  H. L. Woodcock III,  
 P. M. Zimmerman,  S. Faraji,  P. M. W. Gill,  M. Head-Gordon,  
 J. M. Herbert,  A. I. Krylov

 Contributors to earlier versions of Q-Chem not listed above: 
 R. D. Adamson,  B. Austin,  R. Baer,  J. Baker,  G. J. O. Beran,  
 K. Brandhorst,  S. T. Brown,  E. F. C. Byrd,  A. K. Chakraborty,  
 G. K. L. Chan,  Chun-Min Chang,  Yunqing Chen,  C.-L. Cheng,  
 Siu Hung Chien,  D. M. Chipman,  D. L. Crittenden,  H. Dachsel,  
 R. J. Doerksen,  A. D. Dutoi,  R. G. Edgar,  J. Fosso-Tande,  
 L. Fusti-Molnar,  D. Ghosh,  A. Ghysels,  A. Golubeva-Zadorozhnaya,  
 J. Gonthier,  M. S. Gordon,  S. R. Gwaltney,  G. Hawkins,  J. E. Herr,  
 A. Heyden,  S. Hirata,  E. G. Hohenstein,  G. Kedziora,  F. J. Keil,  
 C. Kelley,  Jihan Kim,  R. A. King,  R. Z. Khaliullin,  P. P. Korambath,  
 W. Kurlancheek,  A. Laurent,  A. M. Lee,  M. S. Lee,  S. V. Levchenko,  
 Ching Yeh Lin,  D. Liotard,  E. Livshits,  R. C. Lochan,  I. Lotan,  
 L. A. Martinez-Martinez,  P. E. Maslen,  N. Nair,  D. P. O'Neill,  
 D. Neuhauser,  E. Neuscamman,  C. M. Oana,  R. Olivares-Amaya,  R. Olson,  
 T. M. Perrine,  B. Peters,  P. A. Pieniazek,  A. Prociuk,  Y. M. Rhee,  
 J. Ritchie,  M. A. Rohrdanz,  E. Rosta,  N. J. Russ,  H. F. Schaefer III,  
 M. W. Schmidt,  N. E. Schultz,  S. Sharma,  N. Shenvi,  C. D. Sherrill,  
 A. C. Simmonett,  A. Sodt,  T. Stein,  D. Stuck,  K. S. Thanthiriwatte,  
 V. Vanovschi,  L. Vogt,  Tao Wang,  A. Warshel,  M. A. Watson,  
 C. F. Williams,  Q. Wu,  X. Xu,  Jun Yang,  W. Zhang,  Yan Zhao

 Please cite Q-Chem as follows:
 Y. Shao et al., Mol. Phys. 113, 184-215 (2015)
 DOI: 10.1080/00268976.2014.952696

 Q-Chem 5.4.0 for Intel X86 EM64T Linux

 Parts of Q-Chem use Armadillo 9.800.1 (Horizon Scraper).
 http://arma.sourceforge.net/

 Q-Chem begins on Sun Jul 10 09:50:18 2022  

 Host: 
0

     Scratch files written to ./qchem3298557//
 May1621 |scratch|qcdevops|jenkins|workspace|build_RNUM    
 Processing $rem in /cm/shared/apps/spack/cpu/opt/spack/linux-centos8-zen2/gcc-10.2.0/qchem-5.4-akfmr7b3t57bfs6qan3padb2wnb2i7cl/config/preferences:
 Processing $rem in /home/theleonzhang/.qchemrc:
 Symmetry turned off for PCM/SM12/SMD calculation
 Core orbitals will be frozen

 Checking the input file for inconsistencies... 	...done.

--------------------------------------------------------------
User input:
--------------------------------------------------------------
$molecule
0 1
C	-0.121370	-0.566010	0.011685
C	0.028630	0.284490	1.111085
C	0.268930	1.647390	0.788385
H	-0.035470	-0.078710	2.147785
C	0.307330	1.864690	-0.600815
S	0.042330	0.362090	-1.475115
C	0.457830	2.718590	1.826285
H	0.383930	2.299390	2.848385
H	-0.307370	3.517890	1.737885
H	1.450330	3.207890	1.737885
C	-0.121370	-2.006710	0.011685
H	0.572730	-2.006410	0.839085
H	-0.748970	-2.710510	0.538185
H	0.604130	-2.525610	-0.597115
H	0.472130	2.799390	-1.149915
$end

$rem
JOBTYPE		SP
EXCHANGE	HF
CORRELATION	pRIMP2
BASIS		cc-pvtz
METHOD		rimp2
AUX_BASIS	rimp2-cc-pvtz
SOLVENT_METHOD	PCM
PURECART	11111
SYMMETRY	false
MEM_TOTAL	110000
SCF_CONVERGENCE = 6
THRESH=10
$end



$solvent
dielectric 4.90
$end
--------------------------------------------------------------
 ----------------------------------------------------------------
             Standard Nuclear Orientation (Angstroms)
    I     Atom           X                Y                Z
 ----------------------------------------------------------------
    1      C      -0.1213700000    -0.5660100000     0.0116850000
    2      C       0.0286300000     0.2844900000     1.1110850000
    3      C       0.2689300000     1.6473900000     0.7883850000
    4      H      -0.0354700000    -0.0787100000     2.1477850000
    5      C       0.3073300000     1.8646900000    -0.6008150000
    6      S       0.0423300000     0.3620900000    -1.4751150000
    7      C       0.4578300000     2.7185900000     1.8262850000
    8      H       0.3839300000     2.2993900000     2.8483850000
    9      H      -0.3073700000     3.5178900000     1.7378850000
   10      H       1.4503300000     3.2078900000     1.7378850000
   11      C      -0.1213700000    -2.0067100000     0.0116850000
   12      H       0.5727300000    -2.0064100000     0.8390850000
   13      H      -0.7489700000    -2.7105100000     0.5381850000
   14      H       0.6041300000    -2.5256100000    -0.5971150000
   15      H       0.4721300000     2.7993900000    -1.1499150000
 ----------------------------------------------------------------
 Nuclear Repulsion Energy =         344.58165006 hartrees
 There are       30 alpha and       30 beta electrons

 Q-Chem warning in module forms1/BasisType.C, line 2236:

 You are not using the predefined 5D/6D in this basis set.

 Requested basis set is cc-pVTZ
 There are 120 shells and 326 basis functions

 Total QAlloc Memory Limit 110000 MB
 Mega-Array Size       188 MB
 MEM_STATIC part       192 MB
 Discretize the solute cavity surface with Lebedev spheres
	Using 110 Lebedev grid points for each H atom
	Using 194 Lebedev grid points for other atoms
	Atomic van der Waals radii will be scaled by 1.20
 Remove points where switching function is < 1.0e-08
 Keep 1064 surface tesserae and discard 1174 interior tesserae
 Molecular Surface Area = 158.691 Angst**2

                       Distance Matrix (Angstroms)
             C (  1)   C (  2)   C (  3)   H (  4)   C (  5)   S (  6)
   C (  2)  1.398045
   C (  3)  2.377969  1.421047
   H (  4)  2.192661  1.100350  2.218118
   C (  5)  2.543077  2.346339  1.406617  3.383654
   S (  6)  1.760324  2.587400  2.612810  3.650447  1.758531
   C (  7)  3.796952  2.573046  1.503459  2.858600  2.577326  4.077373
   H (  8)  4.063584  2.684077  2.163777  2.514378  3.477328  4.749997
   H (  9)  4.437635  3.310687  2.175418  3.630080  2.929239  4.517160
   H ( 10)  4.437604  3.310646  2.175412  3.630063  2.929190  4.517124
   C ( 11)  1.440700  2.545737  3.756068  2.878799  3.942928  2.801533
   H ( 12)  1.800310  2.370285  3.666759  2.408035  4.138739  3.353601
   H ( 13)  2.295640  3.146888  4.482188  3.166428  4.831723  3.757713
   H ( 14)  2.176470  3.338534  4.409750  3.732410  4.400322  3.070068
   H ( 15)  3.609359  3.410797  2.263935  4.406353  1.096510  2.496180
             C (  7)   H (  8)   H (  9)   H ( 10)   C ( 11)   H ( 12)
   H (  8)  1.107194
   H (  9)  1.110057  1.787694
   H ( 10)  1.110083  1.787678  1.784828
   C ( 11)  5.094772  5.181186  5.790990  5.713323
   H ( 12)  4.828394  4.755297  5.665713  5.363483  1.079984
   H ( 13)  5.708826  5.632014  6.358243  6.426792  1.080009  1.527478
   H ( 14)  5.778919  5.933008  6.542702  6.248304  1.079928  1.527490
   H ( 15)  2.977331  4.030407  3.076240  3.076221  4.979975  5.202111
             H ( 13)   H ( 14)
   H ( 14)  1.775943
   H ( 15)  5.890651  5.355244
 
 Requested basis set is rimp2-cc-pVTZ
 There are 250 shells and 848 basis functions
 A cutoff of  1.0D-10 yielded   6193 shell pairs
 There are     45321 function pairs (     58288 Cartesian)
 Smallest overlap matrix eigenvalue = 9.98E-05

 Scale SEOQF with 1.000000e+00/1.000000e-01/1.000000e-01

 Standard Electronic Orientation quadrupole field applied
 Nucleus-field energy     =     0.0000000043 hartrees
 Guess from superposition of atomic densities
 Warning:  Energy on first SCF cycle will be non-variational
 SAD guess density has 60.000000 electrons

 -----------------------------------------------------------------------
  General SCF calculation program by
  Eric Jon Sundstrom, Paul Horn, Yuezhi Mao, Dmitri Zuev, Alec White,
  David Stuck, Shaama M.S., Shane Yost, Joonho Lee, David Small,
  Daniel Levine, Susi Lehtola, Hugh Burton, Evgeny Epifanovsky,
  Bang C. Huynh
 -----------------------------------------------------------------------
 Hartree-Fock
 A restricted SCF calculation will be
 performed using DIIS
 SCF converges when DIIS error is below 1.0e-06
 ---------------------------------------
  Cycle       Energy         DIIS error
 ---------------------------------------
    1    -632.1061525172      2.92e-02  
    2    -629.3423881195      1.93e-03  
    3    -629.4122628484      6.64e-04  
    4    -629.4194893859      3.43e-04  
    5    -629.4215260931      6.22e-05  
    6    -629.4216539849      2.52e-05  
    7    -629.4216848171      1.12e-05  
    8    -629.4216936282      5.05e-06  
    9    -629.4216951164      1.68e-06  
   10    -629.4216952931      5.55e-07  Convergence criterion met
 ---------------------------------------
 SCF time:   CPU 145.48s  wall 147.00s 

************** Final PCM Free Energy Summary **************
 G_electrostatic  =      -0.00551934 hartree =      -3.46343896 kcal/mol
 G_cavitation     =       0.00000000 hartree =       0.00000000 kcal/mol
 G_dispersion     =       0.00000000 hartree =       0.00000000 kcal/mol
 G_repulsion      =       0.00000000 hartree =       0.00000000 kcal/mol
 --------------------------------------------------
 Non-electrostatic Free Energy =       0.00000000 hartree =       0.00000000 kcal/mol
 Total                         =      -0.00551934 hartree =      -3.46343896 kcal/mol
 --------------------------------------------------
 SCF Energy (H0 + V/2)                       =    -629.42169529 
 Solute Internal Energy (H0)                 =    -629.41617595 
 Total Free Energy (H0 + V/2 + non-elec)     =    -629.42169529 hartree
                                             = -394968.07504928 kcal/mol
***********************************************************

 SCF   energy in the final basis set =     -629.4216952931
 Total energy in the final basis set =     -629.4216952931


 --------------------------------------------------------------
  Generalized many-body perturbation theory program
  by Joonho Lee, Fazle Rob, Xintian Feng, Evgeny Epifanovsky

 No regularization used 
 (reg. param. = 0.0000e+00)
  (P|Q)^-1/2 Time:  CPU 0.49 s  wall 0.49 s

 In RI-MP2 calculation: 
 # of frozen core orbitals: 11

 Components of the RIMP2 correlation energy:
        aaaa    correlation energy =        -0.1455932772 a.u.
        abab    correlation energy =        -0.8864214938 a.u.
        bbbb    correlation energy =        -0.1455932772 a.u.
        non-Brillouin singles      =        -0.0000000000 a.u.
        total same-spin energy     =        -0.2911865544 a.u.
        total opposite-spin energy =        -0.8864214938 a.u.

 Total  RIMP2   correlation energy =        -1.1776080481 a.u.
        RIMP2         total energy =      -630.5993033412 a.u.

 RI-MP2 Energy Time:  CPU 11.16 s  wall 11.20 s
 
 --------------------------------------------------------------
 
                    Orbital Energies (a.u.)
 --------------------------------------------------------------
 
 Alpha MOs
 -- Occupied --
-91.9776 -11.2809 -11.2531 -11.2472 -11.2285 -11.2270 -11.2178  -8.9774
 -6.6583  -6.6578  -6.6572  -1.1609  -1.0548  -0.9988  -0.9399  -0.8836
 -0.7424  -0.7220  -0.6491  -0.5900  -0.5748  -0.5667  -0.5594  -0.5431
 -0.5089  -0.4867  -0.4676  -0.4477  -0.3369  -0.2963
 -- Virtual --
  0.1059   0.1450   0.1509   0.1761   0.1827   0.1896   0.2075   0.2232
  0.2350   0.2435   0.2512   0.2674   0.2954   0.3215   0.3436   0.3559
  0.3810   0.3920   0.4054   0.4156   0.4351   0.4540   0.4705   0.4907
  0.4970   0.5067   0.5156   0.5346   0.5426   0.5522   0.5638   0.5944
  0.5996   0.6082   0.6148   0.6231   0.6401   0.6432   0.6458   0.6493
  0.6555   0.6627   0.6799   0.7080   0.7334   0.7463   0.7595   0.7848
  0.8009   0.8296   0.8365   0.8507   0.8699   0.8957   0.9139   0.9289
  0.9355   0.9585   1.0005   1.0130   1.0275   1.0591   1.0634   1.0706
  1.0801   1.0998   1.1097   1.1585   1.1642   1.1818   1.1961   1.2090
  1.2264   1.2291   1.2549   1.2562   1.2664   1.2765   1.3240   1.3349
  1.3480   1.3900   1.3924   1.4026   1.4223   1.4367   1.4618   1.4823
  1.4983   1.5093   1.5282   1.5313   1.5490   1.5615   1.5703   1.5912
  1.6001   1.6238   1.6669   1.6747   1.6897   1.6992   1.7156   1.7391
  1.7564   1.7869   1.8161   1.8253   1.8796   1.9154   1.9242   1.9455
  1.9996   2.0385   2.0946   2.1396   2.1828   2.1962   2.2260   2.2482
  2.2696   2.2887   2.3580   2.4096   2.4567   2.4911   2.5300   2.5608
  2.5711   2.6082   2.6312   2.6605   2.6851   2.6911   2.7032   2.7339
  2.7523   2.7609   2.7697   2.7861   2.8094   2.8436   2.8673   2.8842
  2.8937   2.9239   2.9429   2.9685   2.9762   3.0132   3.0388   3.0447
  3.0842   3.1138   3.1214   3.1357   3.1555   3.1613   3.1782   3.1866
  3.2351   3.2463   3.2583   3.2791   3.2927   3.3038   3.3143   3.3294
  3.3351   3.3700   3.3812   3.3937   3.4128   3.4211   3.4362   3.4396
  3.4550   3.4584   3.4770   3.4964   3.5174   3.5262   3.5300   3.5760
  3.5819   3.5921   3.5949   3.6215   3.6333   3.6393   3.6605   3.6737
  3.6897   3.6964   3.7236   3.7481   3.7710   3.7796   3.7885   3.7997
  3.8086   3.8339   3.8614   3.8738   3.8923   3.9226   3.9452   3.9593
  3.9688   3.9842   4.0064   4.0235   4.0644   4.0694   4.1024   4.1049
  4.1321   4.1389   4.1576   4.1792   4.2154   4.2230   4.2356   4.2391
  4.2847   4.2880   4.3132   4.3316   4.3441   4.3768   4.3913   4.4024
  4.4101   4.4189   4.4392   4.4620   4.4765   4.5159   4.5634   4.5864
  4.5874   4.6283   4.6382   4.6696   4.7253   4.7410   4.7718   4.7873
  4.8114   4.8309   4.8578   4.8863   4.9323   4.9520   5.0804   5.1053
  5.1113   5.1333   5.1843   5.1944   5.2377   5.2598   5.2810   5.3217
  5.3681   5.4061   5.4134   5.4435   5.4594   5.5045   5.5520   5.5627
  5.5989   5.6251   5.6401   5.6900   5.7053   5.8260   5.8413   5.8592
  5.8914   6.0588   6.0666   6.1227   6.2277   6.2522   6.2969   6.3693
  6.4601   6.4920   9.1616  11.4344  12.9350  13.8980  14.1785  14.4147
 --------------------------------------------------------------
 
          Ground-State Mulliken Net Atomic Charges

     Atom                 Charge (a.u.)
  ----------------------------------------
      1 C                     0.061259
      2 C                    -0.273662
      3 C                     0.034294
      4 H                     0.176129
      5 C                    -0.263187
      6 S                    -0.004028
      7 C                    -0.273903
      8 H                     0.101146
      9 H                     0.107298
     10 H                     0.107022
     11 C                    -0.386388
     12 H                     0.135751
     13 H                     0.149780
     14 H                     0.135787
     15 H                     0.192702
  ----------------------------------------
  Sum of atomic charges =     0.000000

 -----------------------------------------------------------------
                    Cartesian Multipole Moments
 -----------------------------------------------------------------
    Charge (ESU x 10^10)
                -0.0000
    Dipole Moment (Debye)
         X       0.6823      Y      -0.3579      Z       1.9621
       Tot       2.1079
    Quadrupole Moments (Debye-Ang)
        XX     -53.8501     XY       0.5625     YY     -42.4425
        XZ      -0.2868     YZ      -0.8728     ZZ     -48.7069
    Octopole Moments (Debye-Ang^2)
       XXX     -19.6514    XXY     -30.8871    XYY      -1.5415
       YYY     -79.2296    XXZ      -2.0927    XYZ       0.7792
       YYZ      -1.7679    XZZ      -5.4820    YZZ     -24.3800
       ZZZ       0.6213
    Hexadecapole Moments (Debye-Ang^3)
      XXXX     -95.5839   XXXY     -53.3826   XXYY    -158.3621
      XYYY     -46.4787   YYYY    -798.0580   XXXZ     -15.3657
      XXYZ     -29.4650   XYYZ     -11.3128   YYYZ    -106.4674
      XXZZ    -103.4367   XYZZ     -14.3501   YYZZ    -212.0997
      XZZZ     -16.9796   YZZZ     -97.1289   ZZZZ    -483.6768
 -----------------------------------------------------------------
 Total job time:  158.70s(wall), 157.02s(cpu) 
 Sun Jul 10 09:52:57 2022

        *************************************************************
        *                                                           *
        *  Thank you very much for using Q-Chem.  Have a nice day.  *
        *                                                           *
        *************************************************************


remove work dirs ./qchem3298557.0 -- ./qchem3298557.-1
rm -rf ./qchem3298557
