You are running Q-Chem version: 5.4.0

#
# job setting
#
local host:  exp-14-41
current dir: /expanse/lustre/scratch/theleonzhang/temp_project/Hydrogenated_Impropers_Test
input file:  Methylthiophene_Phi_25_Theta_140_Methylthiophene_Hydrogenated_Improper_Alternate.qcin
output file: 
nprocs     : 0
nthreads   : 1
#
# qchem installation setting
#
QC:          /cm/shared/apps/spack/cpu/opt/spack/linux-centos8-zen2/gcc-10.2.0/qchem-5.4-akfmr7b3t57bfs6qan3padb2wnb2i7cl
QCAUX:       /cm/shared/apps/spack/cpu/opt/spack/linux-centos8-zen2/gcc-10.2.0/qchem-5.4-akfmr7b3t57bfs6qan3padb2wnb2i7cl/qcaux
QCPROG:      /cm/shared/apps/spack/cpu/opt/spack/linux-centos8-zen2/gcc-10.2.0/qchem-5.4-akfmr7b3t57bfs6qan3padb2wnb2i7cl/exe/qcprog.exe_s
QCPROG_S:    /cm/shared/apps/spack/cpu/opt/spack/linux-centos8-zen2/gcc-10.2.0/qchem-5.4-akfmr7b3t57bfs6qan3padb2wnb2i7cl/exe/qcprog.exe_s
PARALLEL:    -DSERIAL
QCMPI:       mpich
#
# qchem directory setting
#
qcrun:       qchem1530215
QCSCRATCH:   .
QCLOCALSCR:  
QCTMPDIR:    .
QCFILEPREF:  ./qchem1530215
QCSAVEDIR:   
workdirs:    ./qchem1530215
workdir0:    ./qchem1530215
partmpdirs =  
#
# parallel setting
#
QCRSH:           ssh
QCMPI:           mpich
QCMPIRUN:        /cm/shared/apps/spack/cpu/opt/spack/linux-centos8-zen2/gcc-10.2.0/qchem-5.4-akfmr7b3t57bfs6qan3padb2wnb2i7cl/bin/mpi/mpirun_qchem
QCMACHINEFILE:   ./qchem1530215/hostfile

#
# env setting
#
exported envs:   QC QCAUX QCSCRATCH QCRUNNAME QCFILEPREF QCPROG QCPROG_S GUIFILE

Running Job 1 of 1 Methylthiophene_Phi_25_Theta_140_Methylthiophene_Hydrogenated_Improper_Alternate.qcin
qchem Methylthiophene_Phi_25_Theta_140_Methylthiophene_Hydrogenated_Improper_Alternate.qcin_1530215.0 ./qchem1530215/ 0
/cm/shared/apps/spack/cpu/opt/spack/linux-centos8-zen2/gcc-10.2.0/qchem-5.4-akfmr7b3t57bfs6qan3padb2wnb2i7cl/exe/qcprog.exe_s Methylthiophene_Phi_25_Theta_140_Methylthiophene_Hydrogenated_Improper_Alternate.qcin_1530215.0 ./qchem1530215/
                  Welcome to Q-Chem
     A Quantum Leap Into The Future Of Chemistry


 Q-Chem 5.4, Q-Chem, Inc., Pleasanton, CA (2021)

 License issued to: University of California, San Diego (site)

 E. Epifanovsky,  A. T. B. Gilbert,  Xintian Feng,  Joonho Lee,  Yuezhi Mao,  
 N. Mardirossian,  P. Pokhilko,  A. White,  M. Wormit,  M. P. Coons,  
 A. L. Dempwolff,  Zhengting Gan,  D. Hait,  P. R. Horn,  L. D. Jacobson,  
 I. Kaliman,  J. Kussmann,  A. W. Lange,  Ka Un Lao,  D. S. Levine,  Jie Liu,  
 S. C. McKenzie,  A. F. Morrison,  K. Nanda,  F. Plasser,  D. R. Rehn,  
 M. L. Vidal,  Zhi-Qiang You,  Ying Zhu,  B. Alam,  B. Albrecht,  
 A. Aldossary,  E. Alguire,  J. H. Andersen,  D. Barton,  K. Begam,  A. Behn,  
 Y. A. Bernard,  E. J. Berquist,  H. Burton,  A. Carreras,  K. Carter-Fenk,  
 R. Chakraborty,  A. D. Chien,  K. D. Closser,  V. Cofer-Shabica,  
 S. Dasgupta,  Jia Deng,  M. de Wergifosse,  M. Diedenhofen,  Hainam Do,  
 S. Ehlert,  Po-Tung Fang,  S. Fatehi,  Qingguo Feng,  J. Gayvert,  
 Qinghui Ge,  G. Gidofalvi,  M. Goldey,  J. Gomes,  C. Gonzalez-Espinoza,  
 S. Gulania,  A. Gunina,  M. W. D. Hanson-Heine,  P. H. P. Harbach,  
 A. W. Hauser,  M. F. Herbst,  M. Hernandez Vera,  M. Hodecker,  
 Z. C. Holden,  S. Houck,  Xunkun Huang,  Kerwin Hui,  B. C. Huynh,  
 M. Ivanov,  Hyunjun Ji,  Hanjie Jiang,  B. Kaduk,  S. Kaehler,  
 K. Khistyaev,  Jaehoon Kim,  P. Klunzinger,  Z. Koczor-Benda,  
 Joong Hoon Koh,  D. Kosenkov,  L. Koulias,  T. Kowalczyk,  C. M. Krauter,  
 K. Kue,  A. Kunitsa,  T. Kus,  A. Landau,  K. V. Lawler,  D. Lefrancois,  
 S. Lehtola,  Rain Li,  Yi-Pei Li,  Jiashu Liang,  M. Liebenthal,  
 Hung-Hsuan Lin,  You-Sheng Lin,  Fenglai Liu,  Kuan-Yu Liu,  
 M. Loipersberger,  A. Luenser,  A. Manjanath,  P. Manohar,  E. Mansoor,  
 S. F. Manzer,  Shan-Ping Mao,  A. V. Marenich,  T. Markovich,  S. Mason,  
 S. A. Maurer,  P. F. McLaughlin,  M. F. S. J. Menger,  J.-M. Mewes,  
 S. A. Mewes,  P. Morgante,  J. W. Mullinax,  T. S. Nguyen-Beck,  
 K. J. Oosterbaan,  G. Paran,  Alexander C. Paul,  Suranjan K. Paul,  
 F. Pavosevic,  Zheng Pei,  S. Prager,  E. I. Proynov,  E. Ramos,  B. Rana,  
 A. E. Rask,  A. Rettig,  R. M. Richard,  F. Rob,  E. Rossomme,  T. Scheele,  
 M. Scheurer,  M. Schneider,  N. Sergueev,  S. M. Sharada,  W. Skomorowski,  
 D. W. Small,  C. J. Stein,  Yu-Chuan Su,  E. J. Sundstrom,  Zhen Tao,  
 J. Thirman,  T. Tsuchimochi,  N. M. Tubman,  S. P. Veccham,  O. Vydrov,  
 J. Wenzel,  J. Witte,  A. Yamada,  Kun Yao,  S. Yeganeh,  S. R. Yost,  
 A. Zech,  Igor Ying Zhang,  Xing Zhang,  Yu Zhang,  D. Zuev,  
 A. Aspuru-Guzik,  A. T. Bell,  N. A. Besley,  K. B. Bravaya,  B. R. Brooks,  
 D. Casanova,  Jeng-Da Chai,  S. Coriani,  C. J. Cramer,  
 A. E. DePrince, III,  R. A. DiStasio Jr.,  A. Dreuw,  B. D. Dunietz,  
 T. R. Furlani,  W. A. Goddard III,  S. Grimme,  S. Hammes-Schiffer,  
 T. Head-Gordon,  W. J. Hehre,  Chao-Ping Hsu,  T.-C. Jagau,  Yousung Jung,  
 A. Klamt,  Jing Kong,  D. S. Lambrecht,  WanZhen Liang,  N. J. Mayhall,  
 C. W. McCurdy,  J. B. Neaton,  C. Ochsenfeld,  J. A. Parkhill,  R. Peverati,  
 V. A. Rassolov,  Yihan Shao,  L. V. Slipchenko,  T. Stauch,  R. P. Steele,  
 J. E. Subotnik,  A. J. W. Thom,  A. Tkatchenko,  D. G. Truhlar,  
 T. Van Voorhis,  T. A. Wesolowski,  K. B. Whaley,  H. L. Woodcock III,  
 P. M. Zimmerman,  S. Faraji,  P. M. W. Gill,  M. Head-Gordon,  
 J. M. Herbert,  A. I. Krylov

 Contributors to earlier versions of Q-Chem not listed above: 
 R. D. Adamson,  B. Austin,  R. Baer,  J. Baker,  G. J. O. Beran,  
 K. Brandhorst,  S. T. Brown,  E. F. C. Byrd,  A. K. Chakraborty,  
 G. K. L. Chan,  Chun-Min Chang,  Yunqing Chen,  C.-L. Cheng,  
 Siu Hung Chien,  D. M. Chipman,  D. L. Crittenden,  H. Dachsel,  
 R. J. Doerksen,  A. D. Dutoi,  R. G. Edgar,  J. Fosso-Tande,  
 L. Fusti-Molnar,  D. Ghosh,  A. Ghysels,  A. Golubeva-Zadorozhnaya,  
 J. Gonthier,  M. S. Gordon,  S. R. Gwaltney,  G. Hawkins,  J. E. Herr,  
 A. Heyden,  S. Hirata,  E. G. Hohenstein,  G. Kedziora,  F. J. Keil,  
 C. Kelley,  Jihan Kim,  R. A. King,  R. Z. Khaliullin,  P. P. Korambath,  
 W. Kurlancheek,  A. Laurent,  A. M. Lee,  M. S. Lee,  S. V. Levchenko,  
 Ching Yeh Lin,  D. Liotard,  E. Livshits,  R. C. Lochan,  I. Lotan,  
 L. A. Martinez-Martinez,  P. E. Maslen,  N. Nair,  D. P. O'Neill,  
 D. Neuhauser,  E. Neuscamman,  C. M. Oana,  R. Olivares-Amaya,  R. Olson,  
 T. M. Perrine,  B. Peters,  P. A. Pieniazek,  A. Prociuk,  Y. M. Rhee,  
 J. Ritchie,  M. A. Rohrdanz,  E. Rosta,  N. J. Russ,  H. F. Schaefer III,  
 M. W. Schmidt,  N. E. Schultz,  S. Sharma,  N. Shenvi,  C. D. Sherrill,  
 A. C. Simmonett,  A. Sodt,  T. Stein,  D. Stuck,  K. S. Thanthiriwatte,  
 V. Vanovschi,  L. Vogt,  Tao Wang,  A. Warshel,  M. A. Watson,  
 C. F. Williams,  Q. Wu,  X. Xu,  Jun Yang,  W. Zhang,  Yan Zhao

 Please cite Q-Chem as follows:
 Y. Shao et al., Mol. Phys. 113, 184-215 (2015)
 DOI: 10.1080/00268976.2014.952696

 Q-Chem 5.4.0 for Intel X86 EM64T Linux

 Parts of Q-Chem use Armadillo 9.800.1 (Horizon Scraper).
 http://arma.sourceforge.net/

 Q-Chem begins on Sun Jul 10 10:39:02 2022  

 Host: 
0

     Scratch files written to ./qchem1530215//
 May1621 |scratch|qcdevops|jenkins|workspace|build_RNUM    
 Processing $rem in /cm/shared/apps/spack/cpu/opt/spack/linux-centos8-zen2/gcc-10.2.0/qchem-5.4-akfmr7b3t57bfs6qan3padb2wnb2i7cl/config/preferences:
 Processing $rem in /home/theleonzhang/.qchemrc:
 Symmetry turned off for PCM/SM12/SMD calculation
 Core orbitals will be frozen

 Checking the input file for inconsistencies... 	...done.

--------------------------------------------------------------
User input:
--------------------------------------------------------------
$molecule
0 1
C	-0.290043	-0.512746	0.018590
C	0.074957	0.269954	1.117990
C	0.659857	1.524154	0.795290
H	-0.080943	-0.064346	2.154690
C	0.753157	1.724154	-0.593910
S	0.108257	0.341354	-1.468210
C	1.119557	2.509954	1.833190
H	0.939657	2.124254	2.855290
H	0.587257	3.480154	1.744790
H	2.204857	2.725854	1.744790
C	-0.290043	-1.953446	0.018590
H	0.537357	-1.953146	-0.675510
H	0.236457	-2.657246	0.646190
H	-0.898843	-2.472346	-0.706910
H	1.154257	2.584454	-1.143010
$end

$rem
JOBTYPE		SP
EXCHANGE	HF
CORRELATION	pRIMP2
BASIS		cc-pvtz
METHOD		rimp2
AUX_BASIS	rimp2-cc-pvtz
SOLVENT_METHOD	PCM
PURECART	11111
SYMMETRY	false
MEM_TOTAL	110000
SCF_CONVERGENCE = 6
THRESH=10
$end



$solvent
dielectric 4.90
$end
--------------------------------------------------------------
 ----------------------------------------------------------------
             Standard Nuclear Orientation (Angstroms)
    I     Atom           X                Y                Z
 ----------------------------------------------------------------
    1      C      -0.2900430000    -0.5127460000     0.0185900000
    2      C       0.0749570000     0.2699540000     1.1179900000
    3      C       0.6598570000     1.5241540000     0.7952900000
    4      H      -0.0809430000    -0.0643460000     2.1546900000
    5      C       0.7531570000     1.7241540000    -0.5939100000
    6      S       0.1082570000     0.3413540000    -1.4682100000
    7      C       1.1195570000     2.5099540000     1.8331900000
    8      H       0.9396570000     2.1242540000     2.8552900000
    9      H       0.5872570000     3.4801540000     1.7447900000
   10      H       2.2048570000     2.7258540000     1.7447900000
   11      C      -0.2900430000    -1.9534460000     0.0185900000
   12      H       0.5373570000    -1.9531460000    -0.6755100000
   13      H       0.2364570000    -2.6572460000     0.6461900000
   14      H      -0.8988430000    -2.4723460000    -0.7069100000
   15      H       1.1542570000     2.5844540000    -1.1430100000
 ----------------------------------------------------------------
 Nuclear Repulsion Energy =         346.00206084 hartrees
 There are       30 alpha and       30 beta electrons

 Q-Chem warning in module forms1/BasisType.C, line 2236:

 You are not using the predefined 5D/6D in this basis set.

 Requested basis set is cc-pVTZ
 There are 120 shells and 326 basis functions

 Total QAlloc Memory Limit 110000 MB
 Mega-Array Size       188 MB
 MEM_STATIC part       192 MB
 Discretize the solute cavity surface with Lebedev spheres
	Using 110 Lebedev grid points for each H atom
	Using 194 Lebedev grid points for other atoms
	Atomic van der Waals radii will be scaled by 1.20
 Remove points where switching function is < 1.0e-08
 Keep 1064 surface tesserae and discard 1174 interior tesserae
 Molecular Surface Area = 158.161 Angst**2

                       Distance Matrix (Angstroms)
             C (  1)   C (  2)   C (  3)   H (  4)   C (  5)   S (  6)
   C (  2)  1.398043
   C (  3)  2.377927  1.421007
   H (  4)  2.192649  1.100367  2.218127
   C (  5)  2.543058  2.346328  1.406621  3.383675
   S (  6)  1.760314  2.587400  2.612797  3.650451  1.758531
   C (  7)  3.796901  2.572994  1.503450  2.858598  2.577314  4.077352
   H (  8)  4.063594  2.684091  2.163795  2.514445  3.477333  4.750012
   H (  9)  4.437643  3.310697  2.175490  3.630150  2.929262  4.517176
   H ( 10)  4.437660  3.310709  2.175467  3.630167  2.929224  4.517183
   C ( 11)  1.440700  2.507073  3.687719  2.859256  3.871455  2.763209
   H ( 12)  1.800310  2.893550  3.777549  3.458308  3.684530  2.465204
   H ( 13)  2.295640  2.969373  4.205426  3.016529  4.582739  3.671338
   H ( 14)  2.176470  3.434932  4.545125  3.828339  4.511373  3.083948
   H ( 15)  3.609427  3.410853  2.263995  4.406437  1.096589  2.496271
             C (  7)   H (  8)   H (  9)   H ( 10)   C ( 11)   H ( 12)
   H (  8)  1.107166
   H (  9)  1.110156  1.787697
   H ( 10)  1.110092  1.787698  1.784824
   C ( 11)  5.020128  5.117291  5.768313  5.576750
   H ( 12)  5.152843  5.408658  5.948201  5.525527  1.079984
   H ( 13)  5.374829  5.313883  6.244811  5.836033  1.080009  1.527478
   H ( 14)  5.945533  6.099023  6.606934  6.531850  1.079928  1.527490
   H ( 15)  2.977335  4.030414  3.076224  3.076222  4.901821  4.603144
             H ( 13)   H ( 14)
   H ( 14)  1.775943
   H ( 15)  5.614180  5.475092
 
 Requested basis set is rimp2-cc-pVTZ
 There are 250 shells and 848 basis functions
 A cutoff of  1.0D-10 yielded   6202 shell pairs
 There are     45456 function pairs (     58459 Cartesian)
 Smallest overlap matrix eigenvalue = 1.11E-04

 Scale SEOQF with 1.000000e-01/1.000000e-01/1.000000e-01

 Standard Electronic Orientation quadrupole field applied
 Nucleus-field energy     =     0.0000000015 hartrees
 Guess from superposition of atomic densities
 Warning:  Energy on first SCF cycle will be non-variational
 SAD guess density has 60.000000 electrons

 -----------------------------------------------------------------------
  General SCF calculation program by
  Eric Jon Sundstrom, Paul Horn, Yuezhi Mao, Dmitri Zuev, Alec White,
  David Stuck, Shaama M.S., Shane Yost, Joonho Lee, David Small,
  Daniel Levine, Susi Lehtola, Hugh Burton, Evgeny Epifanovsky,
  Bang C. Huynh
 -----------------------------------------------------------------------
 Hartree-Fock
 A restricted SCF calculation will be
 performed using DIIS
 SCF converges when DIIS error is below 1.0e-06
 ---------------------------------------
  Cycle       Energy         DIIS error
 ---------------------------------------
    1    -632.1237784697      2.92e-02  
    2    -629.3300979522      1.94e-03  
    3    -629.4005601939      6.86e-04  
    4    -629.4081182232      3.50e-04  
    5    -629.4102745748      6.41e-05  
    6    -629.4104143820      2.66e-05  
    7    -629.4104504267      1.18e-05  
    8    -629.4104606771      5.23e-06  
    9    -629.4104622855      1.78e-06  
   10    -629.4104624972      6.76e-07  Convergence criterion met
 ---------------------------------------
 SCF time:   CPU 145.06s  wall 146.00s 

************** Final PCM Free Energy Summary **************
 G_electrostatic  =      -0.00524282 hartree =      -3.28991978 kcal/mol
 G_cavitation     =       0.00000000 hartree =       0.00000000 kcal/mol
 G_dispersion     =       0.00000000 hartree =       0.00000000 kcal/mol
 G_repulsion      =       0.00000000 hartree =       0.00000000 kcal/mol
 --------------------------------------------------
 Non-electrostatic Free Energy =       0.00000000 hartree =       0.00000000 kcal/mol
 Total                         =      -0.00524282 hartree =      -3.28991978 kcal/mol
 --------------------------------------------------
 SCF Energy (H0 + V/2)                       =    -629.41046250 
 Solute Internal Energy (H0)                 =    -629.40521968 
 Total Free Energy (H0 + V/2 + non-elec)     =    -629.41046250 hartree
                                             = -394961.02636349 kcal/mol
***********************************************************

 SCF   energy in the final basis set =     -629.4104624972
 Total energy in the final basis set =     -629.4104624972


 --------------------------------------------------------------
  Generalized many-body perturbation theory program
  by Joonho Lee, Fazle Rob, Xintian Feng, Evgeny Epifanovsky

 No regularization used 
 (reg. param. = 0.0000e+00)
  (P|Q)^-1/2 Time:  CPU 0.48 s  wall 0.48 s

 In RI-MP2 calculation: 
 # of frozen core orbitals: 11

 Components of the RIMP2 correlation energy:
        aaaa    correlation energy =        -0.1455722887 a.u.
        abab    correlation energy =        -0.8873563324 a.u.
        bbbb    correlation energy =        -0.1455722887 a.u.
        non-Brillouin singles      =        -0.0000000000 a.u.
        total same-spin energy     =        -0.2911445773 a.u.
        total opposite-spin energy =        -0.8873563324 a.u.

 Total  RIMP2   correlation energy =        -1.1785009097 a.u.
        RIMP2         total energy =      -630.5889634069 a.u.

 RI-MP2 Energy Time:  CPU 11.10 s  wall 11.14 s
 
 --------------------------------------------------------------
 
                    Orbital Energies (a.u.)
 --------------------------------------------------------------
 
 Alpha MOs
 -- Occupied --
-91.9761 -11.2773 -11.2568 -11.2470 -11.2294 -11.2269 -11.2175  -8.9766
 -6.6575  -6.6569  -6.6563  -1.1632  -1.0563  -0.9950  -0.9443  -0.8809
 -0.7472  -0.7196  -0.6483  -0.5874  -0.5785  -0.5646  -0.5527  -0.5477
 -0.5100  -0.4889  -0.4632  -0.4504  -0.3398  -0.2932
 -- Virtual --
  0.0980   0.1445   0.1520   0.1751   0.1879   0.1912   0.2072   0.2211
  0.2279   0.2460   0.2499   0.2567   0.2924   0.3263   0.3448   0.3520
  0.3770   0.4009   0.4081   0.4296   0.4364   0.4606   0.4673   0.4780
  0.4900   0.4916   0.5189   0.5333   0.5444   0.5468   0.5666   0.5880
  0.5995   0.6039   0.6088   0.6180   0.6280   0.6379   0.6409   0.6491
  0.6575   0.6644   0.6910   0.7027   0.7248   0.7447   0.7641   0.7962
  0.8033   0.8123   0.8397   0.8598   0.8646   0.8870   0.8982   0.9224
  0.9605   0.9661   1.0024   1.0100   1.0319   1.0563   1.0605   1.0688
  1.0813   1.0897   1.1101   1.1470   1.1581   1.1890   1.1988   1.2096
  1.2197   1.2413   1.2496   1.2717   1.2772   1.2952   1.3036   1.3285
  1.3597   1.3936   1.4038   1.4151   1.4257   1.4394   1.4456   1.4744
  1.4832   1.5049   1.5108   1.5298   1.5422   1.5491   1.5661   1.5758
  1.5930   1.6360   1.6438   1.6717   1.6801   1.6997   1.7123   1.7393
  1.7555   1.7868   1.8005   1.8318   1.8965   1.9272   1.9456   1.9670
  1.9991   2.0424   2.1023   2.1299   2.1705   2.1888   2.2115   2.2222
  2.2699   2.2792   2.3590   2.4235   2.4577   2.4827   2.4953   2.5453
  2.5615   2.5850   2.6353   2.6577   2.6656   2.6937   2.7066   2.7274
  2.7362   2.7581   2.7809   2.7957   2.8327   2.8398   2.8504   2.8892
  2.9189   2.9297   2.9682   2.9717   3.0089   3.0375   3.0481   3.0727
  3.0776   3.0914   3.1116   3.1385   3.1537   3.1644   3.1700   3.1924
  3.2080   3.2473   3.2644   3.2822   3.2855   3.2914   3.3126   3.3360
  3.3447   3.3591   3.3811   3.3919   3.4111   3.4251   3.4291   3.4351
  3.4500   3.4691   3.4753   3.4986   3.5124   3.5190   3.5372   3.5715
  3.5879   3.5966   3.6096   3.6228   3.6337   3.6441   3.6708   3.6859
  3.6985   3.7115   3.7243   3.7297   3.7569   3.7638   3.7866   3.7989
  3.8151   3.8300   3.8638   3.8770   3.8926   3.9202   3.9334   3.9545
  3.9721   4.0060   4.0108   4.0283   4.0369   4.0696   4.0966   4.0998
  4.1123   4.1472   4.1622   4.1915   4.2215   4.2263   4.2558   4.2662
  4.2839   4.2912   4.3285   4.3428   4.3491   4.3624   4.3869   4.4036
  4.4170   4.4305   4.4431   4.4724   4.4829   4.5241   4.5434   4.5871
  4.6026   4.6151   4.6321   4.6648   4.7250   4.7379   4.7558   4.7797
  4.7929   4.8193   4.8447   4.8735   4.8975   4.9399   5.0580   5.0787
  5.1108   5.1433   5.1798   5.1942   5.2102   5.2592   5.2901   5.3267
  5.3686   5.4057   5.4157   5.4452   5.4828   5.5237   5.5521   5.5640
  5.5998   5.6148   5.6223   5.6492   5.6986   5.8103   5.8339   5.8604
  5.9433   5.9769   6.0431   6.1286   6.2280   6.2473   6.2847   6.3633
  6.4305   6.5768   9.2237  11.3914  12.8770  13.6786  14.1897  14.5243
 --------------------------------------------------------------
 
          Ground-State Mulliken Net Atomic Charges

     Atom                 Charge (a.u.)
  ----------------------------------------
      1 C                     0.049401
      2 C                    -0.309537
      3 C                     0.056960
      4 H                     0.179132
      5 C                    -0.260650
      6 S                    -0.005246
      7 C                    -0.271083
      8 H                     0.101616
      9 H                     0.107581
     10 H                     0.106734
     11 C                    -0.372825
     12 H                     0.135906
     13 H                     0.159445
     14 H                     0.129026
     15 H                     0.193541
  ----------------------------------------
  Sum of atomic charges =     0.000000

 -----------------------------------------------------------------
                    Cartesian Multipole Moments
 -----------------------------------------------------------------
    Charge (ESU x 10^10)
                -0.0000
    Dipole Moment (Debye)
         X       1.1535      Y      -0.3058      Z       1.0789
       Tot       1.6088
    Quadrupole Moments (Debye-Ang)
        XX     -52.9446     XY       2.2411     YY     -43.7567
        XZ       0.4395     YZ       1.0007     ZZ     -48.6318
    Octopole Moments (Debye-Ang^2)
       XXX     -45.4051    XXY     -24.1348    XYY      -5.4515
       YYY     -73.9930    XXZ      -2.5187    XYZ      -2.5541
       YYZ      -5.2310    XZZ     -13.0840    YZZ     -22.0761
       ZZZ       2.1240
    Hexadecapole Moments (Debye-Ang^3)
      XXXX    -179.5640   XXXY    -120.5316   XXYY    -152.1689
      XYYY    -112.5826   YYYY    -717.5397   XXXZ     -40.1306
      XXYZ     -29.7148   XYYZ     -14.0266   YYYZ     -94.1134
      XXZZ    -114.7155   XYZZ     -32.8892   YYZZ    -198.1397
      XZZZ     -44.2423   YZZZ     -93.6038   ZZZZ    -483.4659
 -----------------------------------------------------------------
 Total job time:  158.42s(wall), 156.52s(cpu) 
 Sun Jul 10 10:41:40 2022

        *************************************************************
        *                                                           *
        *  Thank you very much for using Q-Chem.  Have a nice day.  *
        *                                                           *
        *************************************************************


remove work dirs ./qchem1530215.0 -- ./qchem1530215.-1
rm -rf ./qchem1530215
