You are running Q-Chem version: 5.4.0

#
# job setting
#
local host:  exp-2-28
current dir: /expanse/lustre/scratch/theleonzhang/temp_project/Hydrogenated_Impropers_Test
input file:  Methylthiophene_Phi_60_Theta_70_Methylthiophene_Hydrogenated_Improper.qcin
output file: 
nprocs     : 0
nthreads   : 1
#
# qchem installation setting
#
QC:          /cm/shared/apps/spack/cpu/opt/spack/linux-centos8-zen2/gcc-10.2.0/qchem-5.4-akfmr7b3t57bfs6qan3padb2wnb2i7cl
QCAUX:       /cm/shared/apps/spack/cpu/opt/spack/linux-centos8-zen2/gcc-10.2.0/qchem-5.4-akfmr7b3t57bfs6qan3padb2wnb2i7cl/qcaux
QCPROG:      /cm/shared/apps/spack/cpu/opt/spack/linux-centos8-zen2/gcc-10.2.0/qchem-5.4-akfmr7b3t57bfs6qan3padb2wnb2i7cl/exe/qcprog.exe_s
QCPROG_S:    /cm/shared/apps/spack/cpu/opt/spack/linux-centos8-zen2/gcc-10.2.0/qchem-5.4-akfmr7b3t57bfs6qan3padb2wnb2i7cl/exe/qcprog.exe_s
PARALLEL:    -DSERIAL
QCMPI:       mpich
#
# qchem directory setting
#
qcrun:       qchem1886549
QCSCRATCH:   .
QCLOCALSCR:  
QCTMPDIR:    .
QCFILEPREF:  ./qchem1886549
QCSAVEDIR:   
workdirs:    ./qchem1886549
workdir0:    ./qchem1886549
partmpdirs =  
#
# parallel setting
#
QCRSH:           ssh
QCMPI:           mpich
QCMPIRUN:        /cm/shared/apps/spack/cpu/opt/spack/linux-centos8-zen2/gcc-10.2.0/qchem-5.4-akfmr7b3t57bfs6qan3padb2wnb2i7cl/bin/mpi/mpirun_qchem
QCMACHINEFILE:   ./qchem1886549/hostfile

#
# env setting
#
exported envs:   QC QCAUX QCSCRATCH QCRUNNAME QCFILEPREF QCPROG QCPROG_S GUIFILE

Running Job 1 of 1 Methylthiophene_Phi_60_Theta_70_Methylthiophene_Hydrogenated_Improper.qcin
qchem Methylthiophene_Phi_60_Theta_70_Methylthiophene_Hydrogenated_Improper.qcin_1886549.0 ./qchem1886549/ 0
/cm/shared/apps/spack/cpu/opt/spack/linux-centos8-zen2/gcc-10.2.0/qchem-5.4-akfmr7b3t57bfs6qan3padb2wnb2i7cl/exe/qcprog.exe_s Methylthiophene_Phi_60_Theta_70_Methylthiophene_Hydrogenated_Improper.qcin_1886549.0 ./qchem1886549/
                  Welcome to Q-Chem
     A Quantum Leap Into The Future Of Chemistry


 Q-Chem 5.4, Q-Chem, Inc., Pleasanton, CA (2021)

 License issued to: University of California, San Diego (site)

 E. Epifanovsky,  A. T. B. Gilbert,  Xintian Feng,  Joonho Lee,  Yuezhi Mao,  
 N. Mardirossian,  P. Pokhilko,  A. White,  M. Wormit,  M. P. Coons,  
 A. L. Dempwolff,  Zhengting Gan,  D. Hait,  P. R. Horn,  L. D. Jacobson,  
 I. Kaliman,  J. Kussmann,  A. W. Lange,  Ka Un Lao,  D. S. Levine,  Jie Liu,  
 S. C. McKenzie,  A. F. Morrison,  K. Nanda,  F. Plasser,  D. R. Rehn,  
 M. L. Vidal,  Zhi-Qiang You,  Ying Zhu,  B. Alam,  B. Albrecht,  
 A. Aldossary,  E. Alguire,  J. H. Andersen,  D. Barton,  K. Begam,  A. Behn,  
 Y. A. Bernard,  E. J. Berquist,  H. Burton,  A. Carreras,  K. Carter-Fenk,  
 R. Chakraborty,  A. D. Chien,  K. D. Closser,  V. Cofer-Shabica,  
 S. Dasgupta,  Jia Deng,  M. de Wergifosse,  M. Diedenhofen,  Hainam Do,  
 S. Ehlert,  Po-Tung Fang,  S. Fatehi,  Qingguo Feng,  J. Gayvert,  
 Qinghui Ge,  G. Gidofalvi,  M. Goldey,  J. Gomes,  C. Gonzalez-Espinoza,  
 S. Gulania,  A. Gunina,  M. W. D. Hanson-Heine,  P. H. P. Harbach,  
 A. W. Hauser,  M. F. Herbst,  M. Hernandez Vera,  M. Hodecker,  
 Z. C. Holden,  S. Houck,  Xunkun Huang,  Kerwin Hui,  B. C. Huynh,  
 M. Ivanov,  Hyunjun Ji,  Hanjie Jiang,  B. Kaduk,  S. Kaehler,  
 K. Khistyaev,  Jaehoon Kim,  P. Klunzinger,  Z. Koczor-Benda,  
 Joong Hoon Koh,  D. Kosenkov,  L. Koulias,  T. Kowalczyk,  C. M. Krauter,  
 K. Kue,  A. Kunitsa,  T. Kus,  A. Landau,  K. V. Lawler,  D. Lefrancois,  
 S. Lehtola,  Rain Li,  Yi-Pei Li,  Jiashu Liang,  M. Liebenthal,  
 Hung-Hsuan Lin,  You-Sheng Lin,  Fenglai Liu,  Kuan-Yu Liu,  
 M. Loipersberger,  A. Luenser,  A. Manjanath,  P. Manohar,  E. Mansoor,  
 S. F. Manzer,  Shan-Ping Mao,  A. V. Marenich,  T. Markovich,  S. Mason,  
 S. A. Maurer,  P. F. McLaughlin,  M. F. S. J. Menger,  J.-M. Mewes,  
 S. A. Mewes,  P. Morgante,  J. W. Mullinax,  T. S. Nguyen-Beck,  
 K. J. Oosterbaan,  G. Paran,  Alexander C. Paul,  Suranjan K. Paul,  
 F. Pavosevic,  Zheng Pei,  S. Prager,  E. I. Proynov,  E. Ramos,  B. Rana,  
 A. E. Rask,  A. Rettig,  R. M. Richard,  F. Rob,  E. Rossomme,  T. Scheele,  
 M. Scheurer,  M. Schneider,  N. Sergueev,  S. M. Sharada,  W. Skomorowski,  
 D. W. Small,  C. J. Stein,  Yu-Chuan Su,  E. J. Sundstrom,  Zhen Tao,  
 J. Thirman,  T. Tsuchimochi,  N. M. Tubman,  S. P. Veccham,  O. Vydrov,  
 J. Wenzel,  J. Witte,  A. Yamada,  Kun Yao,  S. Yeganeh,  S. R. Yost,  
 A. Zech,  Igor Ying Zhang,  Xing Zhang,  Yu Zhang,  D. Zuev,  
 A. Aspuru-Guzik,  A. T. Bell,  N. A. Besley,  K. B. Bravaya,  B. R. Brooks,  
 D. Casanova,  Jeng-Da Chai,  S. Coriani,  C. J. Cramer,  
 A. E. DePrince, III,  R. A. DiStasio Jr.,  A. Dreuw,  B. D. Dunietz,  
 T. R. Furlani,  W. A. Goddard III,  S. Grimme,  S. Hammes-Schiffer,  
 T. Head-Gordon,  W. J. Hehre,  Chao-Ping Hsu,  T.-C. Jagau,  Yousung Jung,  
 A. Klamt,  Jing Kong,  D. S. Lambrecht,  WanZhen Liang,  N. J. Mayhall,  
 C. W. McCurdy,  J. B. Neaton,  C. Ochsenfeld,  J. A. Parkhill,  R. Peverati,  
 V. A. Rassolov,  Yihan Shao,  L. V. Slipchenko,  T. Stauch,  R. P. Steele,  
 J. E. Subotnik,  A. J. W. Thom,  A. Tkatchenko,  D. G. Truhlar,  
 T. Van Voorhis,  T. A. Wesolowski,  K. B. Whaley,  H. L. Woodcock III,  
 P. M. Zimmerman,  S. Faraji,  P. M. W. Gill,  M. Head-Gordon,  
 J. M. Herbert,  A. I. Krylov

 Contributors to earlier versions of Q-Chem not listed above: 
 R. D. Adamson,  B. Austin,  R. Baer,  J. Baker,  G. J. O. Beran,  
 K. Brandhorst,  S. T. Brown,  E. F. C. Byrd,  A. K. Chakraborty,  
 G. K. L. Chan,  Chun-Min Chang,  Yunqing Chen,  C.-L. Cheng,  
 Siu Hung Chien,  D. M. Chipman,  D. L. Crittenden,  H. Dachsel,  
 R. J. Doerksen,  A. D. Dutoi,  R. G. Edgar,  J. Fosso-Tande,  
 L. Fusti-Molnar,  D. Ghosh,  A. Ghysels,  A. Golubeva-Zadorozhnaya,  
 J. Gonthier,  M. S. Gordon,  S. R. Gwaltney,  G. Hawkins,  J. E. Herr,  
 A. Heyden,  S. Hirata,  E. G. Hohenstein,  G. Kedziora,  F. J. Keil,  
 C. Kelley,  Jihan Kim,  R. A. King,  R. Z. Khaliullin,  P. P. Korambath,  
 W. Kurlancheek,  A. Laurent,  A. M. Lee,  M. S. Lee,  S. V. Levchenko,  
 Ching Yeh Lin,  D. Liotard,  E. Livshits,  R. C. Lochan,  I. Lotan,  
 L. A. Martinez-Martinez,  P. E. Maslen,  N. Nair,  D. P. O'Neill,  
 D. Neuhauser,  E. Neuscamman,  C. M. Oana,  R. Olivares-Amaya,  R. Olson,  
 T. M. Perrine,  B. Peters,  P. A. Pieniazek,  A. Prociuk,  Y. M. Rhee,  
 J. Ritchie,  M. A. Rohrdanz,  E. Rosta,  N. J. Russ,  H. F. Schaefer III,  
 M. W. Schmidt,  N. E. Schultz,  S. Sharma,  N. Shenvi,  C. D. Sherrill,  
 A. C. Simmonett,  A. Sodt,  T. Stein,  D. Stuck,  K. S. Thanthiriwatte,  
 V. Vanovschi,  L. Vogt,  Tao Wang,  A. Warshel,  M. A. Watson,  
 C. F. Williams,  Q. Wu,  X. Xu,  Jun Yang,  W. Zhang,  Yan Zhao

 Please cite Q-Chem as follows:
 Y. Shao et al., Mol. Phys. 113, 184-215 (2015)
 DOI: 10.1080/00268976.2014.952696

 Q-Chem 5.4.0 for Intel X86 EM64T Linux

 Parts of Q-Chem use Armadillo 9.800.1 (Horizon Scraper).
 http://arma.sourceforge.net/

 Q-Chem begins on Sun Jul 10 08:57:17 2022  

 Host: 
0

     Scratch files written to ./qchem1886549//
 May1621 |scratch|qcdevops|jenkins|workspace|build_RNUM    
 Processing $rem in /cm/shared/apps/spack/cpu/opt/spack/linux-centos8-zen2/gcc-10.2.0/qchem-5.4-akfmr7b3t57bfs6qan3padb2wnb2i7cl/config/preferences:
 Processing $rem in /home/theleonzhang/.qchemrc:
 Symmetry turned off for PCM/SM12/SMD calculation
 Core orbitals will be frozen

 Checking the input file for inconsistencies... 	...done.

--------------------------------------------------------------
User input:
--------------------------------------------------------------
$molecule
0 1
C	-0.585271	-0.237129	0.019394
C	0.162629	0.194671	1.118794
C	1.361129	0.886571	0.796094
H	-0.156771	0.010271	2.155494
C	1.552229	0.996871	-0.593106
S	0.230929	0.234071	-1.467406
C	2.303229	1.430471	1.833994
H	1.934529	1.217571	2.856094
H	2.423629	2.530371	1.745594
H	3.316029	0.984671	1.745594
C	-0.585271	-1.677829	0.019394
H	-0.954571	-1.677529	-0.995506
H	0.184529	-2.381629	-0.260706
H	-1.475271	-2.196729	0.343294
H	2.374329	1.471471	-1.142206
$end

$rem
JOBTYPE		SP
EXCHANGE	HF
CORRELATION	pRIMP2
BASIS		cc-pvtz
METHOD		rimp2
AUX_BASIS	rimp2-cc-pvtz
SOLVENT_METHOD	PCM
PURECART	11111
SYMMETRY	false
MEM_TOTAL	110000
SCF_CONVERGENCE = 6
THRESH=10
$end



$solvent
dielectric 4.90
$end
--------------------------------------------------------------
 ----------------------------------------------------------------
             Standard Nuclear Orientation (Angstroms)
    I     Atom           X                Y                Z
 ----------------------------------------------------------------
    1      C      -0.5852710000    -0.2371290000     0.0193940000
    2      C       0.1626290000     0.1946710000     1.1187940000
    3      C       1.3611290000     0.8865710000     0.7960940000
    4      H      -0.1567710000     0.0102710000     2.1554940000
    5      C       1.5522290000     0.9968710000    -0.5931060000
    6      S       0.2309290000     0.2340710000    -1.4674060000
    7      C       2.3032290000     1.4304710000     1.8339940000
    8      H       1.9345290000     1.2175710000     2.8560940000
    9      H       2.4236290000     2.5303710000     1.7455940000
   10      H       3.3160290000     0.9846710000     1.7455940000
   11      C      -0.5852710000    -1.6778290000     0.0193940000
   12      H      -0.9545710000    -1.6775290000    -0.9955060000
   13      H       0.1845290000    -2.3816290000    -0.2607060000
   14      H      -1.4752710000    -2.1967290000     0.3432940000
   15      H       2.3743290000     1.4714710000    -1.1422060000
 ----------------------------------------------------------------
 Nuclear Repulsion Energy =         351.06459646 hartrees
 There are       30 alpha and       30 beta electrons

 Q-Chem warning in module forms1/BasisType.C, line 2236:

 You are not using the predefined 5D/6D in this basis set.

 Requested basis set is cc-pVTZ
 There are 120 shells and 326 basis functions

 Total QAlloc Memory Limit 110000 MB
 Mega-Array Size       188 MB
 MEM_STATIC part       192 MB
 Discretize the solute cavity surface with Lebedev spheres
	Using 110 Lebedev grid points for each H atom
	Using 194 Lebedev grid points for other atoms
	Atomic van der Waals radii will be scaled by 1.20
 Remove points where switching function is < 1.0e-08
 Keep 1035 surface tesserae and discard 1203 interior tesserae
 Molecular Surface Area = 155.788 Angst**2

                       Distance Matrix (Angstroms)
             C (  1)   C (  2)   C (  3)   H (  4)   C (  5)   S (  6)
   C (  2)  1.398029
   C (  3)  2.377906  1.421008
   H (  4)  2.192656  1.100348  2.218083
   C (  5)  2.542994  2.346298  1.406614  3.383617
   S (  6)  1.760337  2.587402  2.612765  3.650452  1.758436
   C (  7)  3.796985  2.573107  1.503535  2.858659  2.577368  4.077382
   H (  8)  4.063547  2.684058  2.163781  2.514349  3.477333  4.749966
   H (  9)  4.437601  3.310664  2.175439  3.630067  2.929245  4.517111
   H ( 10)  4.437646  3.310726  2.175502  3.630126  2.929276  4.517146
   C ( 11)  1.440700  2.296582  3.311779  2.756124  3.478230  2.555801
   H ( 12)  1.800321  3.037027  3.891903  3.662507  3.687599  2.298329
   H ( 13)  2.295632  2.922468  3.630750  3.416971  3.659967  2.881001
   H ( 14)  2.176475  3.000485  4.213897  3.145371  4.499076  3.478296
   H ( 15)  3.609413  3.410859  2.263998  4.406404  1.096633  2.496213
             C (  7)   H (  8)   H (  9)   H ( 10)   C ( 11)   H ( 12)
   H (  8)  1.107228
   H (  9)  1.109996  1.787700
   H ( 10)  1.110097  1.787735  1.784815
   C ( 11)  4.614947  4.772798  5.453640  5.028799
   H ( 12)  5.317800  5.618125  6.052461  5.730529  1.080002
   H ( 13)  4.838260  5.072591  5.759041  5.016324  1.079992  1.527494
   H ( 14)  5.445717  5.440436  6.285964  5.919823  1.079939  1.527443
   H ( 15)  2.977331  4.030421  3.076213  3.076225  4.475113  4.584681
             H ( 13)   H ( 14)
   H ( 14)  1.775934
   H ( 15)  4.518700  5.521034
 
 Requested basis set is rimp2-cc-pVTZ
 There are 250 shells and 848 basis functions
 A cutoff of  1.0D-10 yielded   6331 shell pairs
 There are     46571 function pairs (     59894 Cartesian)
 Smallest overlap matrix eigenvalue = 1.34E-04

 Scale SEOQF with 1.000000e-01/1.000000e-01/1.000000e-01

 Standard Electronic Orientation quadrupole field applied
 Nucleus-field energy     =    -0.0000000016 hartrees
 Guess from superposition of atomic densities
 Warning:  Energy on first SCF cycle will be non-variational
 SAD guess density has 60.000000 electrons

 -----------------------------------------------------------------------
  General SCF calculation program by
  Eric Jon Sundstrom, Paul Horn, Yuezhi Mao, Dmitri Zuev, Alec White,
  David Stuck, Shaama M.S., Shane Yost, Joonho Lee, David Small,
  Daniel Levine, Susi Lehtola, Hugh Burton, Evgeny Epifanovsky,
  Bang C. Huynh
 -----------------------------------------------------------------------
 Hartree-Fock
 A restricted SCF calculation will be
 performed using DIIS
 SCF converges when DIIS error is below 1.0e-06
 ---------------------------------------
  Cycle       Energy         DIIS error
 ---------------------------------------
    1    -632.2167535588      2.96e-02  
    2    -629.2628767425      1.94e-03  
    3    -629.3340503302      7.19e-04  
    4    -629.3423678349      3.81e-04  
    5    -629.3450025041      6.84e-05  
    6    -629.3452042097      3.80e-05  
    7    -629.3452738259      1.62e-05  
    8    -629.3453010439      8.90e-06  
    9    -629.3453064198      3.02e-06  
   10    -629.3453070840      1.11e-06  
   11    -629.3453071707      4.52e-07  Convergence criterion met
 ---------------------------------------
 SCF time:   CPU 163.50s  wall 164.00s 

************** Final PCM Free Energy Summary **************
 G_electrostatic  =      -0.00581154 hartree =      -3.64679939 kcal/mol
 G_cavitation     =       0.00000000 hartree =       0.00000000 kcal/mol
 G_dispersion     =       0.00000000 hartree =       0.00000000 kcal/mol
 G_repulsion      =       0.00000000 hartree =       0.00000000 kcal/mol
 --------------------------------------------------
 Non-electrostatic Free Energy =       0.00000000 hartree =       0.00000000 kcal/mol
 Total                         =      -0.00581154 hartree =      -3.64679939 kcal/mol
 --------------------------------------------------
 SCF Energy (H0 + V/2)                       =    -629.34530717 
 Solute Internal Energy (H0)                 =    -629.33949563 
 Total Free Energy (H0 + V/2 + non-elec)     =    -629.34530717 hartree
                                             = -394920.14077902 kcal/mol
***********************************************************

 SCF   energy in the final basis set =     -629.3453071707
 Total energy in the final basis set =     -629.3453071707


 --------------------------------------------------------------
  Generalized many-body perturbation theory program
  by Joonho Lee, Fazle Rob, Xintian Feng, Evgeny Epifanovsky

 No regularization used 
 (reg. param. = 0.0000e+00)
  (P|Q)^-1/2 Time:  CPU 0.48 s  wall 0.48 s

 In RI-MP2 calculation: 
 # of frozen core orbitals: 11

 Components of the RIMP2 correlation energy:
        aaaa    correlation energy =        -0.1477434341 a.u.
        abab    correlation energy =        -0.8945039562 a.u.
        bbbb    correlation energy =        -0.1477434341 a.u.
        non-Brillouin singles      =        -0.0000000000 a.u.
        total same-spin energy     =        -0.2954868682 a.u.
        total opposite-spin energy =        -0.8945039562 a.u.

 Total  RIMP2   correlation energy =        -1.1899908245 a.u.
        RIMP2         total energy =      -630.5352979952 a.u.

 RI-MP2 Energy Time:  CPU 11.22 s  wall 11.25 s
 
 --------------------------------------------------------------
 
                    Orbital Energies (a.u.)
 --------------------------------------------------------------
 
 Alpha MOs
 -- Occupied --
-91.9757 -11.2858 -11.2541 -11.2482 -11.2376 -11.2287 -11.2070  -8.9767
 -6.6575  -6.6566  -6.6564  -1.1740  -1.0567  -0.9962  -0.9438  -0.8789
 -0.7558  -0.7290  -0.6435  -0.5899  -0.5802  -0.5716  -0.5510  -0.5457
 -0.5203  -0.4690  -0.4434  -0.4389  -0.3311  -0.3062
 -- Virtual --
  0.0623   0.1412   0.1546   0.1770   0.1820   0.1915   0.1986   0.2225
  0.2310   0.2444   0.2482   0.2702   0.2904   0.2943   0.3394   0.3525
  0.3690   0.3947   0.3993   0.4156   0.4281   0.4471   0.4633   0.4745
  0.4832   0.4962   0.5132   0.5330   0.5419   0.5525   0.5662   0.5710
  0.5810   0.6003   0.6121   0.6207   0.6221   0.6415   0.6431   0.6545
  0.6600   0.6692   0.6924   0.7083   0.7382   0.7500   0.7609   0.7819
  0.8009   0.8049   0.8251   0.8370   0.8631   0.8773   0.9031   0.9322
  0.9551   0.9714   0.9976   1.0340   1.0421   1.0498   1.0661   1.0832
  1.1057   1.1207   1.1455   1.1521   1.1673   1.1862   1.2075   1.2131
  1.2379   1.2436   1.2640   1.2688   1.2799   1.2913   1.3104   1.3312
  1.3448   1.3719   1.3836   1.4016   1.4260   1.4347   1.4515   1.4750
  1.4869   1.5058   1.5111   1.5220   1.5440   1.5685   1.5739   1.5854
  1.6048   1.6320   1.6464   1.6625   1.6714   1.6900   1.7024   1.7507
  1.7666   1.7944   1.7969   1.8408   1.8647   1.9309   1.9452   1.9602
  1.9930   2.0253   2.0651   2.1310   2.1611   2.1841   2.2006   2.2121
  2.2514   2.2726   2.3477   2.4038   2.4371   2.4747   2.5272   2.5483
  2.5650   2.6123   2.6439   2.6614   2.6724   2.6937   2.7181   2.7262
  2.7576   2.7756   2.8036   2.8157   2.8333   2.8513   2.8640   2.8988
  2.9070   2.9227   2.9661   2.9823   3.0052   3.0325   3.0476   3.0667
  3.0959   3.1075   3.1143   3.1458   3.1568   3.1700   3.1874   3.2063
  3.2247   3.2277   3.2395   3.2616   3.2665   3.2903   3.3128   3.3261
  3.3389   3.3606   3.3626   3.3739   3.3835   3.4085   3.4258   3.4346
  3.4503   3.4696   3.4840   3.5040   3.5251   3.5404   3.5566   3.5671
  3.5794   3.6094   3.6282   3.6490   3.6566   3.6594   3.6786   3.6975
  3.7211   3.7238   3.7496   3.7529   3.7758   3.7907   3.8060   3.8120
  3.8416   3.8571   3.8912   3.8960   3.9371   3.9456   3.9621   3.9721
  3.9853   4.0253   4.0344   4.0394   4.0536   4.0736   4.0928   4.1174
  4.1456   4.1638   4.1901   4.1940   4.2100   4.2155   4.2268   4.2564
  4.2786   4.2859   4.3107   4.3458   4.3490   4.3794   4.3933   4.4031
  4.4252   4.4382   4.4626   4.4910   4.5055   4.5344   4.5757   4.5856
  4.6092   4.6471   4.6672   4.6913   4.7222   4.7268   4.7566   4.7685
  4.7864   4.8493   4.8701   4.8949   4.9249   4.9358   5.0420   5.0837
  5.1067   5.1389   5.1655   5.1994   5.2274   5.2626   5.2804   5.3053
  5.3599   5.3989   5.4301   5.4390   5.4857   5.4931   5.5377   5.5490
  5.5990   5.6235   5.6323   5.6665   5.6967   5.8062   5.8453   5.8951
  5.9253   5.9859   6.0326   6.0803   6.2031   6.2282   6.2538   6.3427
  6.4191   6.4965   9.2553  11.9177  12.7899  13.7462  14.1548  14.2634
 --------------------------------------------------------------
 
          Ground-State Mulliken Net Atomic Charges

     Atom                 Charge (a.u.)
  ----------------------------------------
      1 C                    -0.125928
      2 C                    -0.097498
      3 C                    -0.024565
      4 H                     0.185417
      5 C                    -0.175835
      6 S                     0.012048
      7 C                    -0.268539
      8 H                     0.102250
      9 H                     0.106451
     10 H                     0.103524
     11 C                    -0.364918
     12 H                     0.105608
     13 H                     0.130940
     14 H                     0.111805
     15 H                     0.199240
  ----------------------------------------
  Sum of atomic charges =     0.000000

 -----------------------------------------------------------------
                    Cartesian Multipole Moments
 -----------------------------------------------------------------
    Charge (ESU x 10^10)
                -0.0000
    Dipole Moment (Debye)
         X       2.4195      Y       0.3808      Z       1.2595
       Tot       2.7542
    Quadrupole Moments (Debye-Ang)
        XX     -47.7327     XY       4.5655     YY     -50.1492
        XZ      -0.3718     YZ       0.8561     ZZ     -47.8405
    Octopole Moments (Debye-Ang^2)
       XXX     -76.7064    XXY      -3.8730    XYY     -25.3433
       YYY     -34.0183    XXZ      -5.1899    XYZ      -2.1257
       YYZ      -4.5637    XZZ     -26.0597    YZZ      -8.0213
       ZZZ       4.2667
    Hexadecapole Moments (Debye-Ang^3)
      XXXX    -488.0353   XXXY    -136.6957   XXYY    -138.3677
      XYYY    -150.5636   YYYY    -380.3512   XXXZ     -92.7501
      XXYZ     -23.4606   XYYZ     -31.9649   YYYZ     -47.3174
      XXZZ    -159.2814   XYZZ     -44.0164   YYZZ    -148.8594
      XZZZ     -89.4210   YZZZ     -52.2399   ZZZZ    -477.0721
 -----------------------------------------------------------------
 Total job time:  176.77s(wall), 175.08s(cpu) 
 Sun Jul 10 09:00:14 2022

        *************************************************************
        *                                                           *
        *  Thank you very much for using Q-Chem.  Have a nice day.  *
        *                                                           *
        *************************************************************


remove work dirs ./qchem1886549.0 -- ./qchem1886549.-1
rm -rf ./qchem1886549
