You are running Q-Chem version: 5.4.0

#
# job setting
#
local host:  exp-4-01
current dir: /expanse/lustre/scratch/theleonzhang/temp_project/Hydrogenated_Impropers_Test
input file:  Methylthiophene_Phi_50_Theta_50_Methylthiophene_Hydrogenated_Improper_Alternate.qcin
output file: 
nprocs     : 0
nthreads   : 1
#
# qchem installation setting
#
QC:          /cm/shared/apps/spack/cpu/opt/spack/linux-centos8-zen2/gcc-10.2.0/qchem-5.4-akfmr7b3t57bfs6qan3padb2wnb2i7cl
QCAUX:       /cm/shared/apps/spack/cpu/opt/spack/linux-centos8-zen2/gcc-10.2.0/qchem-5.4-akfmr7b3t57bfs6qan3padb2wnb2i7cl/qcaux
QCPROG:      /cm/shared/apps/spack/cpu/opt/spack/linux-centos8-zen2/gcc-10.2.0/qchem-5.4-akfmr7b3t57bfs6qan3padb2wnb2i7cl/exe/qcprog.exe_s
QCPROG_S:    /cm/shared/apps/spack/cpu/opt/spack/linux-centos8-zen2/gcc-10.2.0/qchem-5.4-akfmr7b3t57bfs6qan3padb2wnb2i7cl/exe/qcprog.exe_s
PARALLEL:    -DSERIAL
QCMPI:       mpich
#
# qchem directory setting
#
qcrun:       qchem3955054
QCSCRATCH:   .
QCLOCALSCR:  
QCTMPDIR:    .
QCFILEPREF:  ./qchem3955054
QCSAVEDIR:   
workdirs:    ./qchem3955054
workdir0:    ./qchem3955054
partmpdirs =  
#
# parallel setting
#
QCRSH:           ssh
QCMPI:           mpich
QCMPIRUN:        /cm/shared/apps/spack/cpu/opt/spack/linux-centos8-zen2/gcc-10.2.0/qchem-5.4-akfmr7b3t57bfs6qan3padb2wnb2i7cl/bin/mpi/mpirun_qchem
QCMACHINEFILE:   ./qchem3955054/hostfile

#
# env setting
#
exported envs:   QC QCAUX QCSCRATCH QCRUNNAME QCFILEPREF QCPROG QCPROG_S GUIFILE

Running Job 1 of 1 Methylthiophene_Phi_50_Theta_50_Methylthiophene_Hydrogenated_Improper_Alternate.qcin
qchem Methylthiophene_Phi_50_Theta_50_Methylthiophene_Hydrogenated_Improper_Alternate.qcin_3955054.0 ./qchem3955054/ 0
/cm/shared/apps/spack/cpu/opt/spack/linux-centos8-zen2/gcc-10.2.0/qchem-5.4-akfmr7b3t57bfs6qan3padb2wnb2i7cl/exe/qcprog.exe_s Methylthiophene_Phi_50_Theta_50_Methylthiophene_Hydrogenated_Improper_Alternate.qcin_3955054.0 ./qchem3955054/
                  Welcome to Q-Chem
     A Quantum Leap Into The Future Of Chemistry


 Q-Chem 5.4, Q-Chem, Inc., Pleasanton, CA (2021)

 License issued to: University of California, San Diego (site)

 E. Epifanovsky,  A. T. B. Gilbert,  Xintian Feng,  Joonho Lee,  Yuezhi Mao,  
 N. Mardirossian,  P. Pokhilko,  A. White,  M. Wormit,  M. P. Coons,  
 A. L. Dempwolff,  Zhengting Gan,  D. Hait,  P. R. Horn,  L. D. Jacobson,  
 I. Kaliman,  J. Kussmann,  A. W. Lange,  Ka Un Lao,  D. S. Levine,  Jie Liu,  
 S. C. McKenzie,  A. F. Morrison,  K. Nanda,  F. Plasser,  D. R. Rehn,  
 M. L. Vidal,  Zhi-Qiang You,  Ying Zhu,  B. Alam,  B. Albrecht,  
 A. Aldossary,  E. Alguire,  J. H. Andersen,  D. Barton,  K. Begam,  A. Behn,  
 Y. A. Bernard,  E. J. Berquist,  H. Burton,  A. Carreras,  K. Carter-Fenk,  
 R. Chakraborty,  A. D. Chien,  K. D. Closser,  V. Cofer-Shabica,  
 S. Dasgupta,  Jia Deng,  M. de Wergifosse,  M. Diedenhofen,  Hainam Do,  
 S. Ehlert,  Po-Tung Fang,  S. Fatehi,  Qingguo Feng,  J. Gayvert,  
 Qinghui Ge,  G. Gidofalvi,  M. Goldey,  J. Gomes,  C. Gonzalez-Espinoza,  
 S. Gulania,  A. Gunina,  M. W. D. Hanson-Heine,  P. H. P. Harbach,  
 A. W. Hauser,  M. F. Herbst,  M. Hernandez Vera,  M. Hodecker,  
 Z. C. Holden,  S. Houck,  Xunkun Huang,  Kerwin Hui,  B. C. Huynh,  
 M. Ivanov,  Hyunjun Ji,  Hanjie Jiang,  B. Kaduk,  S. Kaehler,  
 K. Khistyaev,  Jaehoon Kim,  P. Klunzinger,  Z. Koczor-Benda,  
 Joong Hoon Koh,  D. Kosenkov,  L. Koulias,  T. Kowalczyk,  C. M. Krauter,  
 K. Kue,  A. Kunitsa,  T. Kus,  A. Landau,  K. V. Lawler,  D. Lefrancois,  
 S. Lehtola,  Rain Li,  Yi-Pei Li,  Jiashu Liang,  M. Liebenthal,  
 Hung-Hsuan Lin,  You-Sheng Lin,  Fenglai Liu,  Kuan-Yu Liu,  
 M. Loipersberger,  A. Luenser,  A. Manjanath,  P. Manohar,  E. Mansoor,  
 S. F. Manzer,  Shan-Ping Mao,  A. V. Marenich,  T. Markovich,  S. Mason,  
 S. A. Maurer,  P. F. McLaughlin,  M. F. S. J. Menger,  J.-M. Mewes,  
 S. A. Mewes,  P. Morgante,  J. W. Mullinax,  T. S. Nguyen-Beck,  
 K. J. Oosterbaan,  G. Paran,  Alexander C. Paul,  Suranjan K. Paul,  
 F. Pavosevic,  Zheng Pei,  S. Prager,  E. I. Proynov,  E. Ramos,  B. Rana,  
 A. E. Rask,  A. Rettig,  R. M. Richard,  F. Rob,  E. Rossomme,  T. Scheele,  
 M. Scheurer,  M. Schneider,  N. Sergueev,  S. M. Sharada,  W. Skomorowski,  
 D. W. Small,  C. J. Stein,  Yu-Chuan Su,  E. J. Sundstrom,  Zhen Tao,  
 J. Thirman,  T. Tsuchimochi,  N. M. Tubman,  S. P. Veccham,  O. Vydrov,  
 J. Wenzel,  J. Witte,  A. Yamada,  Kun Yao,  S. Yeganeh,  S. R. Yost,  
 A. Zech,  Igor Ying Zhang,  Xing Zhang,  Yu Zhang,  D. Zuev,  
 A. Aspuru-Guzik,  A. T. Bell,  N. A. Besley,  K. B. Bravaya,  B. R. Brooks,  
 D. Casanova,  Jeng-Da Chai,  S. Coriani,  C. J. Cramer,  
 A. E. DePrince, III,  R. A. DiStasio Jr.,  A. Dreuw,  B. D. Dunietz,  
 T. R. Furlani,  W. A. Goddard III,  S. Grimme,  S. Hammes-Schiffer,  
 T. Head-Gordon,  W. J. Hehre,  Chao-Ping Hsu,  T.-C. Jagau,  Yousung Jung,  
 A. Klamt,  Jing Kong,  D. S. Lambrecht,  WanZhen Liang,  N. J. Mayhall,  
 C. W. McCurdy,  J. B. Neaton,  C. Ochsenfeld,  J. A. Parkhill,  R. Peverati,  
 V. A. Rassolov,  Yihan Shao,  L. V. Slipchenko,  T. Stauch,  R. P. Steele,  
 J. E. Subotnik,  A. J. W. Thom,  A. Tkatchenko,  D. G. Truhlar,  
 T. Van Voorhis,  T. A. Wesolowski,  K. B. Whaley,  H. L. Woodcock III,  
 P. M. Zimmerman,  S. Faraji,  P. M. W. Gill,  M. Head-Gordon,  
 J. M. Herbert,  A. I. Krylov

 Contributors to earlier versions of Q-Chem not listed above: 
 R. D. Adamson,  B. Austin,  R. Baer,  J. Baker,  G. J. O. Beran,  
 K. Brandhorst,  S. T. Brown,  E. F. C. Byrd,  A. K. Chakraborty,  
 G. K. L. Chan,  Chun-Min Chang,  Yunqing Chen,  C.-L. Cheng,  
 Siu Hung Chien,  D. M. Chipman,  D. L. Crittenden,  H. Dachsel,  
 R. J. Doerksen,  A. D. Dutoi,  R. G. Edgar,  J. Fosso-Tande,  
 L. Fusti-Molnar,  D. Ghosh,  A. Ghysels,  A. Golubeva-Zadorozhnaya,  
 J. Gonthier,  M. S. Gordon,  S. R. Gwaltney,  G. Hawkins,  J. E. Herr,  
 A. Heyden,  S. Hirata,  E. G. Hohenstein,  G. Kedziora,  F. J. Keil,  
 C. Kelley,  Jihan Kim,  R. A. King,  R. Z. Khaliullin,  P. P. Korambath,  
 W. Kurlancheek,  A. Laurent,  A. M. Lee,  M. S. Lee,  S. V. Levchenko,  
 Ching Yeh Lin,  D. Liotard,  E. Livshits,  R. C. Lochan,  I. Lotan,  
 L. A. Martinez-Martinez,  P. E. Maslen,  N. Nair,  D. P. O'Neill,  
 D. Neuhauser,  E. Neuscamman,  C. M. Oana,  R. Olivares-Amaya,  R. Olson,  
 T. M. Perrine,  B. Peters,  P. A. Pieniazek,  A. Prociuk,  Y. M. Rhee,  
 J. Ritchie,  M. A. Rohrdanz,  E. Rosta,  N. J. Russ,  H. F. Schaefer III,  
 M. W. Schmidt,  N. E. Schultz,  S. Sharma,  N. Shenvi,  C. D. Sherrill,  
 A. C. Simmonett,  A. Sodt,  T. Stein,  D. Stuck,  K. S. Thanthiriwatte,  
 V. Vanovschi,  L. Vogt,  Tao Wang,  A. Warshel,  M. A. Watson,  
 C. F. Williams,  Q. Wu,  X. Xu,  Jun Yang,  W. Zhang,  Yan Zhao

 Please cite Q-Chem as follows:
 Y. Shao et al., Mol. Phys. 113, 184-215 (2015)
 DOI: 10.1080/00268976.2014.952696

 Q-Chem 5.4.0 for Intel X86 EM64T Linux

 Parts of Q-Chem use Armadillo 9.800.1 (Horizon Scraper).
 http://arma.sourceforge.net/

 Q-Chem begins on Sun Jul 10 09:45:55 2022  

 Host: 
0

     Scratch files written to ./qchem3955054//
 May1621 |scratch|qcdevops|jenkins|workspace|build_RNUM    
 Processing $rem in /cm/shared/apps/spack/cpu/opt/spack/linux-centos8-zen2/gcc-10.2.0/qchem-5.4-akfmr7b3t57bfs6qan3padb2wnb2i7cl/config/preferences:
 Processing $rem in /home/theleonzhang/.qchemrc:
 Symmetry turned off for PCM/SM12/SMD calculation
 Core orbitals will be frozen

 Checking the input file for inconsistencies... 	...done.

--------------------------------------------------------------
User input:
--------------------------------------------------------------
$molecule
0 1
C	-0.522321	-0.333972	0.010945
C	0.139279	0.221128	1.110345
C	1.199379	1.110628	0.787645
H	-0.143221	-0.015972	2.147045
C	1.368479	1.252428	-0.601555
S	0.199579	0.271728	-1.475855
C	2.032679	1.809828	1.825545
H	1.706579	1.536228	2.847645
H	1.960279	2.914028	1.737145
H	3.107479	1.546728	1.737145
C	-0.522321	-1.774672	0.010945
H	0.171779	-1.774872	0.838345
H	0.105279	-2.478472	-0.515555
H	-1.247821	-2.293572	0.619745
H	2.095579	1.862628	-1.150655
$end

$rem
JOBTYPE		SP
EXCHANGE	HF
CORRELATION	pRIMP2
BASIS		cc-pvtz
METHOD		rimp2
AUX_BASIS	rimp2-cc-pvtz
SOLVENT_METHOD	PCM
PURECART	11111
SYMMETRY	false
MEM_TOTAL	110000
SCF_CONVERGENCE = 6
THRESH=10
$end



$solvent
dielectric 4.90
$end
--------------------------------------------------------------
 ----------------------------------------------------------------
             Standard Nuclear Orientation (Angstroms)
    I     Atom           X                Y                Z
 ----------------------------------------------------------------
    1      C      -0.5223210000    -0.3339720000     0.0109450000
    2      C       0.1392790000     0.2211280000     1.1103450000
    3      C       1.1993790000     1.1106280000     0.7876450000
    4      H      -0.1432210000    -0.0159720000     2.1470450000
    5      C       1.3684790000     1.2524280000    -0.6015550000
    6      S       0.1995790000     0.2717280000    -1.4758550000
    7      C       2.0326790000     1.8098280000     1.8255450000
    8      H       1.7065790000     1.5362280000     2.8476450000
    9      H       1.9602790000     2.9140280000     1.7371450000
   10      H       3.1074790000     1.5467280000     1.7371450000
   11      C      -0.5223210000    -1.7746720000     0.0109450000
   12      H       0.1717790000    -1.7748720000     0.8383450000
   13      H       0.1052790000    -2.4784720000    -0.5155550000
   14      H      -1.2478210000    -2.2935720000     0.6197450000
   15      H       2.0955790000     1.8626280000    -1.1506550000
 ----------------------------------------------------------------
 Nuclear Repulsion Energy =         349.35402116 hartrees
 There are       30 alpha and       30 beta electrons

 Q-Chem warning in module forms1/BasisType.C, line 2236:

 You are not using the predefined 5D/6D in this basis set.

 Requested basis set is cc-pVTZ
 There are 120 shells and 326 basis functions

 Total QAlloc Memory Limit 110000 MB
 Mega-Array Size       188 MB
 MEM_STATIC part       192 MB
 Discretize the solute cavity surface with Lebedev spheres
	Using 110 Lebedev grid points for each H atom
	Using 194 Lebedev grid points for other atoms
	Atomic van der Waals radii will be scaled by 1.20
 Remove points where switching function is < 1.0e-08
 Keep 1047 surface tesserae and discard 1191 interior tesserae
 Molecular Surface Area = 156.168 Angst**2

                       Distance Matrix (Angstroms)
             C (  1)   C (  2)   C (  3)   H (  4)   C (  5)   S (  6)
   C (  2)  1.398045
   C (  3)  2.377895  1.420971
   H (  4)  2.192661  1.100350  2.218056
   C (  5)  2.543019  2.346298  1.406620  3.383619
   S (  6)  1.760280  2.587398  2.612812  3.650437  1.758551
   C (  7)  3.796930  2.573022  1.503498  2.858575  2.577338  4.077407
   H (  8)  4.063559  2.684051  2.163790  2.514344  3.477332  4.750017
   H (  9)  4.437631  3.310684  2.175493  3.630101  2.929276  4.517210
   H ( 10)  4.437595  3.310635  2.175449  3.630028  2.929207  4.517176
   C ( 11)  1.440700  2.372680  3.448546  2.792788  3.621273  2.630488
   H ( 12)  1.800711  2.014710  3.063436  2.214870  3.559487  3.089477
   H ( 13)  2.295640  3.151594  3.972030  3.635258  3.939884  2.914561
   H ( 14)  2.176470  2.913495  4.195898  2.956391  4.572824  3.614868
   H ( 15)  3.609400  3.410829  2.263998  4.406380  1.096599  2.496304
             C (  7)   H (  8)   H (  9)   H ( 10)   C ( 11)   H ( 12)
   H (  8)  1.107198
   H (  9)  1.110096  1.787710
   H ( 10)  1.110059  1.787692  1.784819
   C ( 11)  4.761243  4.896623  5.579156  5.214107
   H ( 12)  4.157834  4.166087  5.098270  4.523185  1.079984
   H ( 13)  5.252155  5.476595  6.131455  5.503644  1.080009  1.527259
   H ( 14)  5.390132  5.325353  6.217683  5.913132  1.079928  1.527121
   H ( 15)  2.977333  4.030417  3.076221  3.076219  4.629543  4.570398
             H ( 13)   H ( 14)
   H ( 14)  1.775943
   H ( 15)  4.817655  5.620199
 
 Requested basis set is rimp2-cc-pVTZ
 There are 250 shells and 848 basis functions
 A cutoff of  1.0D-10 yielded   6344 shell pairs
 There are     46574 function pairs (     59862 Cartesian)
 Smallest overlap matrix eigenvalue = 1.27E-04

 Scale SEOQF with 1.000000e-01/1.000000e-01/1.000000e-01

 Standard Electronic Orientation quadrupole field applied
 Nucleus-field energy     =    -0.0000000007 hartrees
 Guess from superposition of atomic densities
 Warning:  Energy on first SCF cycle will be non-variational
 SAD guess density has 60.000000 electrons

 -----------------------------------------------------------------------
  General SCF calculation program by
  Eric Jon Sundstrom, Paul Horn, Yuezhi Mao, Dmitri Zuev, Alec White,
  David Stuck, Shaama M.S., Shane Yost, Joonho Lee, David Small,
  Daniel Levine, Susi Lehtola, Hugh Burton, Evgeny Epifanovsky,
  Bang C. Huynh
 -----------------------------------------------------------------------
 Hartree-Fock
 A restricted SCF calculation will be
 performed using DIIS
 SCF converges when DIIS error is below 1.0e-06
 ---------------------------------------
  Cycle       Energy         DIIS error
 ---------------------------------------
    1    -632.1979097261      2.95e-02  
    2    -629.2805349017      1.92e-03  
    3    -629.3511664423      6.32e-04  
    4    -629.3584515278      3.09e-04  
    5    -629.3602235543      6.51e-05  
    6    -629.3603778144      2.88e-05  
    7    -629.3604246926      1.35e-05  
    8    -629.3604414970      6.76e-06  
    9    -629.3604445827      2.58e-06  
   10    -629.3604450890      1.14e-06  
   11    -629.3604451743      4.76e-07  Convergence criterion met
 ---------------------------------------
 SCF time:   CPU 162.85s  wall 164.00s 

************** Final PCM Free Energy Summary **************
 G_electrostatic  =      -0.00565997 hartree =      -3.55168529 kcal/mol
 G_cavitation     =       0.00000000 hartree =       0.00000000 kcal/mol
 G_dispersion     =       0.00000000 hartree =       0.00000000 kcal/mol
 G_repulsion      =       0.00000000 hartree =       0.00000000 kcal/mol
 --------------------------------------------------
 Non-electrostatic Free Energy =       0.00000000 hartree =       0.00000000 kcal/mol
 Total                         =      -0.00565997 hartree =      -3.55168529 kcal/mol
 --------------------------------------------------
 SCF Energy (H0 + V/2)                       =    -629.36044517 
 Solute Internal Energy (H0)                 =    -629.35478520 
 Total Free Energy (H0 + V/2 + non-elec)     =    -629.36044517 hartree
                                             = -394929.64001963 kcal/mol
***********************************************************

 SCF   energy in the final basis set =     -629.3604451743
 Total energy in the final basis set =     -629.3604451743


 --------------------------------------------------------------
  Generalized many-body perturbation theory program
  by Joonho Lee, Fazle Rob, Xintian Feng, Evgeny Epifanovsky

 No regularization used 
 (reg. param. = 0.0000e+00)
  (P|Q)^-1/2 Time:  CPU 0.48 s  wall 0.49 s

 In RI-MP2 calculation: 
 # of frozen core orbitals: 11

 Components of the RIMP2 correlation energy:
        aaaa    correlation energy =        -0.1479164781 a.u.
        abab    correlation energy =        -0.8949619336 a.u.
        bbbb    correlation energy =        -0.1479164781 a.u.
        non-Brillouin singles      =        -0.0000000000 a.u.
        total same-spin energy     =        -0.2958329563 a.u.
        total opposite-spin energy =        -0.8949619336 a.u.

 Total  RIMP2   correlation energy =        -1.1907948899 a.u.
        RIMP2         total energy =      -630.5512400642 a.u.

 RI-MP2 Energy Time:  CPU 11.20 s  wall 11.24 s
 
 --------------------------------------------------------------
 
                    Orbital Energies (a.u.)
 --------------------------------------------------------------
 
 Alpha MOs
 -- Occupied --
-91.9781 -11.2701 -11.2590 -11.2488 -11.2410 -11.2285 -11.2075  -8.9782
 -6.6591  -6.6583  -6.6580  -1.1710  -1.0558  -1.0005  -0.9344  -0.8823
 -0.7458  -0.7296  -0.6441  -0.5889  -0.5787  -0.5741  -0.5539  -0.5441
 -0.5161  -0.4737  -0.4552  -0.4478  -0.3318  -0.2921
 -- Virtual --
  0.0709   0.1421   0.1608   0.1757   0.1827   0.1905   0.2045   0.2200
  0.2288   0.2451   0.2501   0.2563   0.2922   0.3003   0.3410   0.3556
  0.3697   0.3940   0.4055   0.4127   0.4335   0.4488   0.4602   0.4719
  0.4815   0.5060   0.5119   0.5297   0.5381   0.5511   0.5763   0.5818
  0.5893   0.6085   0.6201   0.6218   0.6264   0.6358   0.6402   0.6481
  0.6518   0.6635   0.6848   0.7205   0.7243   0.7425   0.7612   0.7779
  0.8025   0.8163   0.8281   0.8419   0.8680   0.8811   0.8977   0.9291
  0.9334   0.9633   1.0164   1.0288   1.0456   1.0577   1.0737   1.0774
  1.0952   1.1148   1.1311   1.1520   1.1800   1.1901   1.2052   1.2133
  1.2325   1.2409   1.2504   1.2574   1.2721   1.2810   1.3188   1.3453
  1.3636   1.3682   1.3778   1.4084   1.4231   1.4452   1.4606   1.4659
  1.4872   1.5002   1.5122   1.5286   1.5591   1.5603   1.5815   1.5935
  1.6100   1.6294   1.6574   1.6587   1.6802   1.6983   1.7160   1.7307
  1.7571   1.7941   1.8088   1.8298   1.8599   1.9148   1.9473   1.9810
  1.9841   2.0386   2.0642   2.1344   2.1587   2.1905   2.2109   2.2274
  2.2627   2.2697   2.3370   2.4154   2.4316   2.4653   2.5119   2.5361
  2.5645   2.6123   2.6460   2.6524   2.6746   2.6979   2.7196   2.7295
  2.7675   2.7748   2.7791   2.8182   2.8333   2.8444   2.8589   2.8907
  2.8987   2.9214   2.9673   2.9902   2.9970   3.0289   3.0388   3.0694
  3.0956   3.1065   3.1126   3.1357   3.1579   3.1668   3.1833   3.1989
  3.2207   3.2254   3.2407   3.2508   3.2842   3.3141   3.3179   3.3364
  3.3387   3.3548   3.3715   3.3889   3.3970   3.4038   3.4170   3.4388
  3.4509   3.4854   3.4921   3.4977   3.5265   3.5320   3.5424   3.5613
  3.5812   3.5956   3.6174   3.6348   3.6407   3.6681   3.6761   3.6935
  3.7003   3.7199   3.7463   3.7521   3.7634   3.7884   3.8021   3.8124
  3.8198   3.8488   3.8729   3.8841   3.9292   3.9453   3.9600   3.9762
  4.0018   4.0152   4.0280   4.0456   4.0668   4.0871   4.1215   4.1344
  4.1488   4.1512   4.1802   4.1991   4.2120   4.2191   4.2625   4.2745
  4.2844   4.3084   4.3478   4.3512   4.3717   4.3808   4.3909   4.4010
  4.4032   4.4374   4.4470   4.4804   4.4990   4.5315   4.5702   4.5931
  4.6145   4.6584   4.6769   4.6851   4.6914   4.7653   4.7676   4.7882
  4.8493   4.8572   4.8779   4.9092   4.9220   4.9844   5.0438   5.0873
  5.1123   5.1345   5.1772   5.2108   5.2260   5.2663   5.2818   5.3138
  5.3710   5.4087   5.4132   5.4241   5.4665   5.4923   5.5511   5.5526
  5.5964   5.6172   5.6284   5.6869   5.7015   5.8016   5.8485   5.8745
  5.9381   5.9646   5.9997   6.0991   6.2159   6.2299   6.2600   6.3517
  6.4217   6.4691   9.2884  11.8660  12.8166  13.8117  14.1770  14.2271
 --------------------------------------------------------------
 
          Ground-State Mulliken Net Atomic Charges

     Atom                 Charge (a.u.)
  ----------------------------------------
      1 C                    -0.056655
      2 C                    -0.169900
      3 C                    -0.005402
      4 H                     0.180681
      5 C                    -0.220975
      6 S                     0.017258
      7 C                    -0.268400
      8 H                     0.101649
      9 H                     0.107086
     10 H                     0.104511
     11 C                    -0.384825
     12 H                     0.134588
     13 H                     0.154315
     14 H                     0.110614
     15 H                     0.195454
  ----------------------------------------
  Sum of atomic charges =     0.000000

 -----------------------------------------------------------------
                    Cartesian Multipole Moments
 -----------------------------------------------------------------
    Charge (ESU x 10^10)
                -0.0000
    Dipole Moment (Debye)
         X       2.1190      Y       0.0381      Z       2.0233
       Tot       2.9301
    Quadrupole Moments (Debye-Ang)
        XX     -49.8555     XY       3.5609     YY     -48.5136
        XZ      -0.5353     YZ      -0.7377     ZZ     -47.9659
    Octopole Moments (Debye-Ang^2)
       XXX     -73.1671    XXY      -8.4400    XYY     -17.9861
       YYY     -49.1767    XXZ      -3.9208    XYZ      -0.5614
       YYZ      -2.5682    XZZ     -23.7249    YZZ     -13.6680
       ZZZ       1.3214
    Hexadecapole Moments (Debye-Ang^3)
      XXXX    -401.4233   XXXY    -152.9383   XXYY    -141.7394
      XYYY    -162.0772   YYYY    -485.6140   XXXZ     -75.4640
      XXYZ     -25.5503   XYYZ     -31.0956   YYYZ     -61.2835
      XXZZ    -145.2847   XYZZ     -45.6685   YYZZ    -162.6443
      XZZZ     -76.4814   YZZZ     -61.4841   ZZZZ    -479.5097
 -----------------------------------------------------------------
 Total job time:  176.52s(wall), 174.41s(cpu) 
 Sun Jul 10 09:48:51 2022

        *************************************************************
        *                                                           *
        *  Thank you very much for using Q-Chem.  Have a nice day.  *
        *                                                           *
        *************************************************************


remove work dirs ./qchem3955054.0 -- ./qchem3955054.-1
rm -rf ./qchem3955054
