You are running Q-Chem version: 5.4.0

#
# job setting
#
local host:  exp-2-29
current dir: /expanse/lustre/scratch/theleonzhang/temp_project/Hydrogenated_Impropers_Test
input file:  Methylthiophene_Phi_40_Theta_250_Methylthiophene_Hydrogenated_Improper_Alternate.qcin
output file: 
nprocs     : 0
nthreads   : 1
#
# qchem installation setting
#
QC:          /cm/shared/apps/spack/cpu/opt/spack/linux-centos8-zen2/gcc-10.2.0/qchem-5.4-akfmr7b3t57bfs6qan3padb2wnb2i7cl
QCAUX:       /cm/shared/apps/spack/cpu/opt/spack/linux-centos8-zen2/gcc-10.2.0/qchem-5.4-akfmr7b3t57bfs6qan3padb2wnb2i7cl/qcaux
QCPROG:      /cm/shared/apps/spack/cpu/opt/spack/linux-centos8-zen2/gcc-10.2.0/qchem-5.4-akfmr7b3t57bfs6qan3padb2wnb2i7cl/exe/qcprog.exe_s
QCPROG_S:    /cm/shared/apps/spack/cpu/opt/spack/linux-centos8-zen2/gcc-10.2.0/qchem-5.4-akfmr7b3t57bfs6qan3padb2wnb2i7cl/exe/qcprog.exe_s
PARALLEL:    -DSERIAL
QCMPI:       mpich
#
# qchem directory setting
#
qcrun:       qchem597145
QCSCRATCH:   .
QCLOCALSCR:  
QCTMPDIR:    .
QCFILEPREF:  ./qchem597145
QCSAVEDIR:   
workdirs:    ./qchem597145
workdir0:    ./qchem597145
partmpdirs =  
#
# parallel setting
#
QCRSH:           ssh
QCMPI:           mpich
QCMPIRUN:        /cm/shared/apps/spack/cpu/opt/spack/linux-centos8-zen2/gcc-10.2.0/qchem-5.4-akfmr7b3t57bfs6qan3padb2wnb2i7cl/bin/mpi/mpirun_qchem
QCMACHINEFILE:   ./qchem597145/hostfile

#
# env setting
#
exported envs:   QC QCAUX QCSCRATCH QCRUNNAME QCFILEPREF QCPROG QCPROG_S GUIFILE

Running Job 1 of 1 Methylthiophene_Phi_40_Theta_250_Methylthiophene_Hydrogenated_Improper_Alternate.qcin
qchem Methylthiophene_Phi_40_Theta_250_Methylthiophene_Hydrogenated_Improper_Alternate.qcin_597145.0 ./qchem597145/ 0
/cm/shared/apps/spack/cpu/opt/spack/linux-centos8-zen2/gcc-10.2.0/qchem-5.4-akfmr7b3t57bfs6qan3padb2wnb2i7cl/exe/qcprog.exe_s Methylthiophene_Phi_40_Theta_250_Methylthiophene_Hydrogenated_Improper_Alternate.qcin_597145.0 ./qchem597145/
                  Welcome to Q-Chem
     A Quantum Leap Into The Future Of Chemistry


 Q-Chem 5.4, Q-Chem, Inc., Pleasanton, CA (2021)

 License issued to: University of California, San Diego (site)

 E. Epifanovsky,  A. T. B. Gilbert,  Xintian Feng,  Joonho Lee,  Yuezhi Mao,  
 N. Mardirossian,  P. Pokhilko,  A. White,  M. Wormit,  M. P. Coons,  
 A. L. Dempwolff,  Zhengting Gan,  D. Hait,  P. R. Horn,  L. D. Jacobson,  
 I. Kaliman,  J. Kussmann,  A. W. Lange,  Ka Un Lao,  D. S. Levine,  Jie Liu,  
 S. C. McKenzie,  A. F. Morrison,  K. Nanda,  F. Plasser,  D. R. Rehn,  
 M. L. Vidal,  Zhi-Qiang You,  Ying Zhu,  B. Alam,  B. Albrecht,  
 A. Aldossary,  E. Alguire,  J. H. Andersen,  D. Barton,  K. Begam,  A. Behn,  
 Y. A. Bernard,  E. J. Berquist,  H. Burton,  A. Carreras,  K. Carter-Fenk,  
 R. Chakraborty,  A. D. Chien,  K. D. Closser,  V. Cofer-Shabica,  
 S. Dasgupta,  Jia Deng,  M. de Wergifosse,  M. Diedenhofen,  Hainam Do,  
 S. Ehlert,  Po-Tung Fang,  S. Fatehi,  Qingguo Feng,  J. Gayvert,  
 Qinghui Ge,  G. Gidofalvi,  M. Goldey,  J. Gomes,  C. Gonzalez-Espinoza,  
 S. Gulania,  A. Gunina,  M. W. D. Hanson-Heine,  P. H. P. Harbach,  
 A. W. Hauser,  M. F. Herbst,  M. Hernandez Vera,  M. Hodecker,  
 Z. C. Holden,  S. Houck,  Xunkun Huang,  Kerwin Hui,  B. C. Huynh,  
 M. Ivanov,  Hyunjun Ji,  Hanjie Jiang,  B. Kaduk,  S. Kaehler,  
 K. Khistyaev,  Jaehoon Kim,  P. Klunzinger,  Z. Koczor-Benda,  
 Joong Hoon Koh,  D. Kosenkov,  L. Koulias,  T. Kowalczyk,  C. M. Krauter,  
 K. Kue,  A. Kunitsa,  T. Kus,  A. Landau,  K. V. Lawler,  D. Lefrancois,  
 S. Lehtola,  Rain Li,  Yi-Pei Li,  Jiashu Liang,  M. Liebenthal,  
 Hung-Hsuan Lin,  You-Sheng Lin,  Fenglai Liu,  Kuan-Yu Liu,  
 M. Loipersberger,  A. Luenser,  A. Manjanath,  P. Manohar,  E. Mansoor,  
 S. F. Manzer,  Shan-Ping Mao,  A. V. Marenich,  T. Markovich,  S. Mason,  
 S. A. Maurer,  P. F. McLaughlin,  M. F. S. J. Menger,  J.-M. Mewes,  
 S. A. Mewes,  P. Morgante,  J. W. Mullinax,  T. S. Nguyen-Beck,  
 K. J. Oosterbaan,  G. Paran,  Alexander C. Paul,  Suranjan K. Paul,  
 F. Pavosevic,  Zheng Pei,  S. Prager,  E. I. Proynov,  E. Ramos,  B. Rana,  
 A. E. Rask,  A. Rettig,  R. M. Richard,  F. Rob,  E. Rossomme,  T. Scheele,  
 M. Scheurer,  M. Schneider,  N. Sergueev,  S. M. Sharada,  W. Skomorowski,  
 D. W. Small,  C. J. Stein,  Yu-Chuan Su,  E. J. Sundstrom,  Zhen Tao,  
 J. Thirman,  T. Tsuchimochi,  N. M. Tubman,  S. P. Veccham,  O. Vydrov,  
 J. Wenzel,  J. Witte,  A. Yamada,  Kun Yao,  S. Yeganeh,  S. R. Yost,  
 A. Zech,  Igor Ying Zhang,  Xing Zhang,  Yu Zhang,  D. Zuev,  
 A. Aspuru-Guzik,  A. T. Bell,  N. A. Besley,  K. B. Bravaya,  B. R. Brooks,  
 D. Casanova,  Jeng-Da Chai,  S. Coriani,  C. J. Cramer,  
 A. E. DePrince, III,  R. A. DiStasio Jr.,  A. Dreuw,  B. D. Dunietz,  
 T. R. Furlani,  W. A. Goddard III,  S. Grimme,  S. Hammes-Schiffer,  
 T. Head-Gordon,  W. J. Hehre,  Chao-Ping Hsu,  T.-C. Jagau,  Yousung Jung,  
 A. Klamt,  Jing Kong,  D. S. Lambrecht,  WanZhen Liang,  N. J. Mayhall,  
 C. W. McCurdy,  J. B. Neaton,  C. Ochsenfeld,  J. A. Parkhill,  R. Peverati,  
 V. A. Rassolov,  Yihan Shao,  L. V. Slipchenko,  T. Stauch,  R. P. Steele,  
 J. E. Subotnik,  A. J. W. Thom,  A. Tkatchenko,  D. G. Truhlar,  
 T. Van Voorhis,  T. A. Wesolowski,  K. B. Whaley,  H. L. Woodcock III,  
 P. M. Zimmerman,  S. Faraji,  P. M. W. Gill,  M. Head-Gordon,  
 J. M. Herbert,  A. I. Krylov

 Contributors to earlier versions of Q-Chem not listed above: 
 R. D. Adamson,  B. Austin,  R. Baer,  J. Baker,  G. J. O. Beran,  
 K. Brandhorst,  S. T. Brown,  E. F. C. Byrd,  A. K. Chakraborty,  
 G. K. L. Chan,  Chun-Min Chang,  Yunqing Chen,  C.-L. Cheng,  
 Siu Hung Chien,  D. M. Chipman,  D. L. Crittenden,  H. Dachsel,  
 R. J. Doerksen,  A. D. Dutoi,  R. G. Edgar,  J. Fosso-Tande,  
 L. Fusti-Molnar,  D. Ghosh,  A. Ghysels,  A. Golubeva-Zadorozhnaya,  
 J. Gonthier,  M. S. Gordon,  S. R. Gwaltney,  G. Hawkins,  J. E. Herr,  
 A. Heyden,  S. Hirata,  E. G. Hohenstein,  G. Kedziora,  F. J. Keil,  
 C. Kelley,  Jihan Kim,  R. A. King,  R. Z. Khaliullin,  P. P. Korambath,  
 W. Kurlancheek,  A. Laurent,  A. M. Lee,  M. S. Lee,  S. V. Levchenko,  
 Ching Yeh Lin,  D. Liotard,  E. Livshits,  R. C. Lochan,  I. Lotan,  
 L. A. Martinez-Martinez,  P. E. Maslen,  N. Nair,  D. P. O'Neill,  
 D. Neuhauser,  E. Neuscamman,  C. M. Oana,  R. Olivares-Amaya,  R. Olson,  
 T. M. Perrine,  B. Peters,  P. A. Pieniazek,  A. Prociuk,  Y. M. Rhee,  
 J. Ritchie,  M. A. Rohrdanz,  E. Rosta,  N. J. Russ,  H. F. Schaefer III,  
 M. W. Schmidt,  N. E. Schultz,  S. Sharma,  N. Shenvi,  C. D. Sherrill,  
 A. C. Simmonett,  A. Sodt,  T. Stein,  D. Stuck,  K. S. Thanthiriwatte,  
 V. Vanovschi,  L. Vogt,  Tao Wang,  A. Warshel,  M. A. Watson,  
 C. F. Williams,  Q. Wu,  X. Xu,  Jun Yang,  W. Zhang,  Yan Zhao

 Please cite Q-Chem as follows:
 Y. Shao et al., Mol. Phys. 113, 184-215 (2015)
 DOI: 10.1080/00268976.2014.952696

 Q-Chem 5.4.0 for Intel X86 EM64T Linux

 Parts of Q-Chem use Armadillo 9.800.1 (Horizon Scraper).
 http://arma.sourceforge.net/

 Q-Chem begins on Sun Jul 10 10:34:51 2022  

 Host: 
0

     Scratch files written to ./qchem597145//
 May1621 |scratch|qcdevops|jenkins|workspace|build_RNUM    
 Processing $rem in /cm/shared/apps/spack/cpu/opt/spack/linux-centos8-zen2/gcc-10.2.0/qchem-5.4-akfmr7b3t57bfs6qan3padb2wnb2i7cl/config/preferences:
 Processing $rem in /home/theleonzhang/.qchemrc:
 Symmetry turned off for PCM/SM12/SMD calculation
 Core orbitals will be frozen

 Checking the input file for inconsistencies... 	...done.

--------------------------------------------------------------
User input:
--------------------------------------------------------------
$molecule
0 1
C	-0.438240	-0.417597	0.010669
C	0.116860	0.243903	1.110069
C	1.006460	1.304103	0.787369
H	-0.120140	-0.038597	2.146769
C	1.148360	1.473103	-0.601831
S	0.167560	0.304303	-1.476131
C	1.705660	2.137303	1.825269
H	1.432060	1.811303	2.847369
H	1.442660	3.212103	1.736869
H	2.809860	2.064903	1.736869
C	-0.438240	-1.858297	0.010669
H	-0.068940	-1.857997	1.025569
H	-1.208040	-2.562097	0.290769
H	0.451760	-2.377197	-0.313231
H	1.758460	2.200203	-1.150931
$end

$rem
JOBTYPE		SP
EXCHANGE	HF
CORRELATION	pRIMP2
BASIS		cc-pvtz
METHOD		rimp2
AUX_BASIS	rimp2-cc-pvtz
SOLVENT_METHOD	PCM
PURECART	11111
SYMMETRY	false
MEM_TOTAL	110000
SCF_CONVERGENCE = 6
THRESH=10
$end



$solvent
dielectric 4.90
$end
--------------------------------------------------------------
 ----------------------------------------------------------------
             Standard Nuclear Orientation (Angstroms)
    I     Atom           X                Y                Z
 ----------------------------------------------------------------
    1      C      -0.4382400000    -0.4175970000     0.0106690000
    2      C       0.1168600000     0.2439030000     1.1100690000
    3      C       1.0064600000     1.3041030000     0.7873690000
    4      H      -0.1201400000    -0.0385970000     2.1467690000
    5      C       1.1483600000     1.4731030000    -0.6018310000
    6      S       0.1675600000     0.3043030000    -1.4761310000
    7      C       1.7056600000     2.1373030000     1.8252690000
    8      H       1.4320600000     1.8113030000     2.8473690000
    9      H       1.4426600000     3.2121030000     1.7368690000
   10      H       2.8098600000     2.0649030000     1.7368690000
   11      C      -0.4382400000    -1.8582970000     0.0106690000
   12      H      -0.0689400000    -1.8579970000     1.0255690000
   13      H      -1.2080400000    -2.5620970000     0.2907690000
   14      H       0.4517600000    -2.3771970000    -0.3132310000
   15      H       1.7584600000     2.2002030000    -1.1509310000
 ----------------------------------------------------------------
 Nuclear Repulsion Energy =         347.49045717 hartrees
 There are       30 alpha and       30 beta electrons

 Q-Chem warning in module forms1/BasisType.C, line 2236:

 You are not using the predefined 5D/6D in this basis set.

 Requested basis set is cc-pVTZ
 There are 120 shells and 326 basis functions

 Total QAlloc Memory Limit 110000 MB
 Mega-Array Size       188 MB
 MEM_STATIC part       192 MB
 Discretize the solute cavity surface with Lebedev spheres
	Using 110 Lebedev grid points for each H atom
	Using 194 Lebedev grid points for other atoms
	Atomic van der Waals radii will be scaled by 1.20
 Remove points where switching function is < 1.0e-08
 Keep 1050 surface tesserae and discard 1188 interior tesserae
 Molecular Surface Area = 156.979 Angst**2

                       Distance Matrix (Angstroms)
             C (  1)   C (  2)   C (  3)   H (  4)   C (  5)   S (  6)
   C (  2)  1.397998
   C (  3)  2.377955  1.421108
   H (  4)  2.192659  1.100328  2.218116
   C (  5)  2.543069  2.346386  1.406618  3.383656
   S (  6)  1.760315  2.587402  2.612812  3.650446  1.758540
   C (  7)  3.796919  2.573084  1.503442  2.858575  2.577316  4.077362
   H (  8)  4.063605  2.684158  2.163790  2.514417  3.477333  4.750017
   H (  9)  4.437598  3.310715  2.175382  3.630071  2.929207  4.517140
   H ( 10)  4.437649  3.310766  2.175458  3.630101  2.929220  4.517171
   C ( 11)  1.440700  2.436403  3.562470  2.824078  3.740412  2.693401
   H ( 12)  1.800321  2.111787  3.348448  2.137739  3.902112  3.315113
   H ( 13)  2.295632  3.209400  4.483093  3.316069  4.757331  3.637370
   H ( 14)  2.176475  3.001351  3.882136  3.442052  3.923436  2.936588
   H ( 15)  3.609388  3.410877  2.263958  4.406380  1.096543  2.496228
             C (  7)   H (  8)   H (  9)   H ( 10)   C ( 11)   H ( 12)
   H (  8)  1.107168
   H (  9)  1.110035  1.787614
   H ( 10)  1.110096  1.787696  1.784742
   C ( 11)  4.884045  5.001085  5.676840  5.377864
   H ( 12)  4.444226  4.362994  5.338239  4.917579  1.080002
   H ( 13)  5.738353  5.712527  6.516042  6.296337  1.079992  1.527494
   H ( 14)  5.150355  5.337969  6.035318  5.431003  1.079939  1.527443
   H ( 15)  2.977333  4.030407  3.076209  3.076221  4.758805  4.954345
             H ( 13)   H ( 14)
   H ( 14)  1.775934
   H ( 15)  5.792937  4.833404
 
 Requested basis set is rimp2-cc-pVTZ
 There are 250 shells and 848 basis functions
 A cutoff of  1.0D-10 yielded   6281 shell pairs
 There are     46149 function pairs (     59356 Cartesian)
 Smallest overlap matrix eigenvalue = 1.36E-04

 Scale SEOQF with 1.000000e-01/1.000000e-01/1.000000e-01

 Standard Electronic Orientation quadrupole field applied
 Nucleus-field energy     =     0.0000000003 hartrees
 Guess from superposition of atomic densities
 Warning:  Energy on first SCF cycle will be non-variational
 SAD guess density has 60.000000 electrons

 -----------------------------------------------------------------------
  General SCF calculation program by
  Eric Jon Sundstrom, Paul Horn, Yuezhi Mao, Dmitri Zuev, Alec White,
  David Stuck, Shaama M.S., Shane Yost, Joonho Lee, David Small,
  Daniel Levine, Susi Lehtola, Hugh Burton, Evgeny Epifanovsky,
  Bang C. Huynh
 -----------------------------------------------------------------------
 Hartree-Fock
 A restricted SCF calculation will be
 performed using DIIS
 SCF converges when DIIS error is below 1.0e-06
 ---------------------------------------
  Cycle       Energy         DIIS error
 ---------------------------------------
    1    -632.1621339084      2.94e-02  
    2    -629.3093011435      1.91e-03  
    3    -629.3793363427      6.24e-04  
    4    -629.3863978997      3.05e-04  
    5    -629.3880882445      6.32e-05  
    6    -629.3882258250      2.53e-05  
    7    -629.3882637372      1.21e-05  
    8    -629.3882756206      4.29e-06  
    9    -629.3882772835      1.88e-06  
   10    -629.3882774479      5.74e-07  Convergence criterion met
 ---------------------------------------
 SCF time:   CPU 146.51s  wall 147.00s 

************** Final PCM Free Energy Summary **************
 G_electrostatic  =      -0.00539034 hartree =      -3.38248787 kcal/mol
 G_cavitation     =       0.00000000 hartree =       0.00000000 kcal/mol
 G_dispersion     =       0.00000000 hartree =       0.00000000 kcal/mol
 G_repulsion      =       0.00000000 hartree =       0.00000000 kcal/mol
 --------------------------------------------------
 Non-electrostatic Free Energy =       0.00000000 hartree =       0.00000000 kcal/mol
 Total                         =      -0.00539034 hartree =      -3.38248787 kcal/mol
 --------------------------------------------------
 SCF Energy (H0 + V/2)                       =    -629.38827745 
 Solute Internal Energy (H0)                 =    -629.38288711 
 Total Free Energy (H0 + V/2 + non-elec)     =    -629.38827745 hartree
                                             = -394947.10503495 kcal/mol
***********************************************************

 SCF   energy in the final basis set =     -629.3882774479
 Total energy in the final basis set =     -629.3882774479


 --------------------------------------------------------------
  Generalized many-body perturbation theory program
  by Joonho Lee, Fazle Rob, Xintian Feng, Evgeny Epifanovsky

 No regularization used 
 (reg. param. = 0.0000e+00)
  (P|Q)^-1/2 Time:  CPU 0.48 s  wall 0.49 s

 In RI-MP2 calculation: 
 # of frozen core orbitals: 11

 Components of the RIMP2 correlation energy:
        aaaa    correlation energy =        -0.1469128489 a.u.
        abab    correlation energy =        -0.8914858602 a.u.
        bbbb    correlation energy =        -0.1469128489 a.u.
        non-Brillouin singles      =        -0.0000000000 a.u.
        total same-spin energy     =        -0.2938256978 a.u.
        total opposite-spin energy =        -0.8914858602 a.u.

 Total  RIMP2   correlation energy =        -1.1853115580 a.u.
        RIMP2         total energy =      -630.5735890059 a.u.

 RI-MP2 Energy Time:  CPU 11.38 s  wall 11.42 s
 
 --------------------------------------------------------------
 
                    Orbital Energies (a.u.)
 --------------------------------------------------------------
 
 Alpha MOs
 -- Occupied --
-91.9754 -11.2660 -11.2656 -11.2476 -11.2393 -11.2281 -11.2106  -8.9756
 -6.6565  -6.6559  -6.6554  -1.1668  -1.0547  -0.9997  -0.9362  -0.8830
 -0.7442  -0.7282  -0.6450  -0.5916  -0.5791  -0.5676  -0.5562  -0.5425
 -0.5139  -0.4707  -0.4688  -0.4396  -0.3337  -0.3010
 -- Virtual --
  0.0813   0.1433   0.1582   0.1773   0.1845   0.1910   0.1996   0.2238
  0.2340   0.2430   0.2502   0.2684   0.2953   0.3037   0.3418   0.3651
  0.3734   0.3856   0.4053   0.4179   0.4312   0.4529   0.4637   0.4713
  0.4892   0.4988   0.5114   0.5317   0.5391   0.5517   0.5681   0.5781
  0.5942   0.6070   0.6120   0.6263   0.6373   0.6400   0.6425   0.6509
  0.6542   0.6687   0.6843   0.6933   0.7423   0.7475   0.7606   0.7760
  0.8047   0.8183   0.8308   0.8351   0.8632   0.8745   0.8877   0.9231
  0.9582   0.9773   1.0073   1.0325   1.0367   1.0438   1.0612   1.0759
  1.0836   1.1068   1.1388   1.1548   1.1709   1.1903   1.1962   1.2151
  1.2210   1.2284   1.2535   1.2546   1.2739   1.2910   1.3288   1.3463
  1.3514   1.3737   1.3877   1.3958   1.4214   1.4233   1.4447   1.4809
  1.4931   1.4965   1.5189   1.5274   1.5573   1.5663   1.5708   1.5823
  1.5952   1.6354   1.6390   1.6573   1.6673   1.7026   1.7136   1.7223
  1.7704   1.7855   1.8131   1.8269   1.8754   1.9130   1.9479   1.9586
  1.9881   2.0358   2.0909   2.1371   2.1502   2.1921   2.2142   2.2241
  2.2584   2.2676   2.3331   2.4085   2.4469   2.4797   2.5374   2.5587
  2.5659   2.6058   2.6399   2.6554   2.6628   2.6899   2.7254   2.7325
  2.7505   2.7777   2.7850   2.8257   2.8328   2.8407   2.8614   2.8942
  2.9111   2.9353   2.9679   2.9713   2.9881   3.0137   3.0390   3.0661
  3.0960   3.1121   3.1302   3.1487   3.1609   3.1681   3.1878   3.1972
  3.2084   3.2352   3.2523   3.2559   3.2772   3.2910   3.3073   3.3289
  3.3393   3.3445   3.3763   3.3845   3.3926   3.4056   3.4209   3.4303
  3.4453   3.4861   3.4970   3.5179   3.5279   3.5341   3.5588   3.5646
  3.5883   3.5920   3.6134   3.6283   3.6423   3.6515   3.6794   3.6920
  3.7018   3.7205   3.7390   3.7432   3.7611   3.7826   3.7931   3.7983
  3.8141   3.8284   3.8507   3.8971   3.9276   3.9320   3.9461   3.9560
  3.9721   3.9850   4.0205   4.0373   4.0577   4.0749   4.1038   4.1281
  4.1457   4.1579   4.1676   4.1907   4.1994   4.2275   4.2277   4.2459
  4.2767   4.3066   4.3085   4.3282   4.3589   4.3785   4.3932   4.4029
  4.4221   4.4333   4.4642   4.4700   4.4972   4.5364   4.5527   4.5835
  4.6047   4.6588   4.6780   4.7053   4.7142   4.7577   4.7713   4.7911
  4.8146   4.8366   4.8529   4.9117   4.9362   4.9499   5.0646   5.0826
  5.1100   5.1513   5.1748   5.1840   5.2257   5.2584   5.2857   5.3052
  5.3708   5.4005   5.4095   5.4359   5.4661   5.4914   5.5472   5.5598
  5.5768   5.6237   5.6282   5.6870   5.7191   5.8156   5.8299   5.8746
  5.9118   5.9519   6.0263   6.0974   6.2266   6.2299   6.2668   6.3598
  6.4013   6.4509   9.2483  11.6963  12.8496  13.7481  14.1933  14.2139
 --------------------------------------------------------------
 
          Ground-State Mulliken Net Atomic Charges

     Atom                 Charge (a.u.)
  ----------------------------------------
      1 C                    -0.008972
      2 C                    -0.220513
      3 C                     0.019314
      4 H                     0.176521
      5 C                    -0.231514
      6 S                     0.003168
      7 C                    -0.269642
      8 H                     0.101253
      9 H                     0.107126
     10 H                     0.105742
     11 C                    -0.370448
     12 H                     0.127698
     13 H                     0.131195
     14 H                     0.135320
     15 H                     0.193753
  ----------------------------------------
  Sum of atomic charges =     0.000000

 -----------------------------------------------------------------
                    Cartesian Multipole Moments
 -----------------------------------------------------------------
    Charge (ESU x 10^10)
                -0.0000
    Dipole Moment (Debye)
         X       1.5056      Y       0.0764      Z       2.1634
       Tot       2.6368
    Quadrupole Moments (Debye-Ang)
        XX     -50.7206     XY       3.9770     YY     -46.6416
        XZ      -0.4376     YZ      -1.0634     ZZ     -48.4614
    Octopole Moments (Debye-Ang^2)
       XXX     -64.7142    XXY     -15.9708    XYY     -14.3254
       YYY     -60.1757    XXZ      -3.4056    XYZ      -0.6225
       YYZ      -1.5465    XZZ     -19.7804    YZZ     -16.8989
       ZZZ       1.4181
    Hexadecapole Moments (Debye-Ang^3)
      XXXX    -309.0480   XXXY    -152.7194   XXYY    -140.4887
      XYYY    -147.7023   YYYY    -590.1007   XXXZ     -61.6234
      XXYZ     -27.6751   XYYZ     -28.0501   YYYZ     -79.3249
      XXZZ    -132.7398   XYZZ     -44.6483   YYZZ    -180.4068
      XZZZ     -64.0846   YZZZ     -73.4647   ZZZZ    -480.7692
 -----------------------------------------------------------------
 Total job time:  160.12s(wall), 158.26s(cpu) 
 Sun Jul 10 10:37:31 2022

        *************************************************************
        *                                                           *
        *  Thank you very much for using Q-Chem.  Have a nice day.  *
        *                                                           *
        *************************************************************


remove work dirs ./qchem597145.0 -- ./qchem597145.-1
rm -rf ./qchem597145
