You are running Q-Chem version: 5.4.0

#
# job setting
#
local host:  exp-3-27
current dir: /expanse/lustre/scratch/theleonzhang/temp_project/Hydrogenated_Impropers_Test
input file:  Methylthiophene_Phi_20_Theta_60_Methylthiophene_Hydrogenated_Improper.qcin
output file: 
nprocs     : 0
nthreads   : 1
#
# qchem installation setting
#
QC:          /cm/shared/apps/spack/cpu/opt/spack/linux-centos8-zen2/gcc-10.2.0/qchem-5.4-akfmr7b3t57bfs6qan3padb2wnb2i7cl
QCAUX:       /cm/shared/apps/spack/cpu/opt/spack/linux-centos8-zen2/gcc-10.2.0/qchem-5.4-akfmr7b3t57bfs6qan3padb2wnb2i7cl/qcaux
QCPROG:      /cm/shared/apps/spack/cpu/opt/spack/linux-centos8-zen2/gcc-10.2.0/qchem-5.4-akfmr7b3t57bfs6qan3padb2wnb2i7cl/exe/qcprog.exe_s
QCPROG_S:    /cm/shared/apps/spack/cpu/opt/spack/linux-centos8-zen2/gcc-10.2.0/qchem-5.4-akfmr7b3t57bfs6qan3padb2wnb2i7cl/exe/qcprog.exe_s
PARALLEL:    -DSERIAL
QCMPI:       mpich
#
# qchem directory setting
#
qcrun:       qchem2533733
QCSCRATCH:   .
QCLOCALSCR:  
QCTMPDIR:    .
QCFILEPREF:  ./qchem2533733
QCSAVEDIR:   
workdirs:    ./qchem2533733
workdir0:    ./qchem2533733
partmpdirs =  
#
# parallel setting
#
QCRSH:           ssh
QCMPI:           mpich
QCMPIRUN:        /cm/shared/apps/spack/cpu/opt/spack/linux-centos8-zen2/gcc-10.2.0/qchem-5.4-akfmr7b3t57bfs6qan3padb2wnb2i7cl/bin/mpi/mpirun_qchem
QCMACHINEFILE:   ./qchem2533733/hostfile

#
# env setting
#
exported envs:   QC QCAUX QCSCRATCH QCRUNNAME QCFILEPREF QCPROG QCPROG_S GUIFILE

Running Job 1 of 1 Methylthiophene_Phi_20_Theta_60_Methylthiophene_Hydrogenated_Improper.qcin
qchem Methylthiophene_Phi_20_Theta_60_Methylthiophene_Hydrogenated_Improper.qcin_2533733.0 ./qchem2533733/ 0
/cm/shared/apps/spack/cpu/opt/spack/linux-centos8-zen2/gcc-10.2.0/qchem-5.4-akfmr7b3t57bfs6qan3padb2wnb2i7cl/exe/qcprog.exe_s Methylthiophene_Phi_20_Theta_60_Methylthiophene_Hydrogenated_Improper.qcin_2533733.0 ./qchem2533733/
                  Welcome to Q-Chem
     A Quantum Leap Into The Future Of Chemistry


 Q-Chem 5.4, Q-Chem, Inc., Pleasanton, CA (2021)

 License issued to: University of California, San Diego (site)

 E. Epifanovsky,  A. T. B. Gilbert,  Xintian Feng,  Joonho Lee,  Yuezhi Mao,  
 N. Mardirossian,  P. Pokhilko,  A. White,  M. Wormit,  M. P. Coons,  
 A. L. Dempwolff,  Zhengting Gan,  D. Hait,  P. R. Horn,  L. D. Jacobson,  
 I. Kaliman,  J. Kussmann,  A. W. Lange,  Ka Un Lao,  D. S. Levine,  Jie Liu,  
 S. C. McKenzie,  A. F. Morrison,  K. Nanda,  F. Plasser,  D. R. Rehn,  
 M. L. Vidal,  Zhi-Qiang You,  Ying Zhu,  B. Alam,  B. Albrecht,  
 A. Aldossary,  E. Alguire,  J. H. Andersen,  D. Barton,  K. Begam,  A. Behn,  
 Y. A. Bernard,  E. J. Berquist,  H. Burton,  A. Carreras,  K. Carter-Fenk,  
 R. Chakraborty,  A. D. Chien,  K. D. Closser,  V. Cofer-Shabica,  
 S. Dasgupta,  Jia Deng,  M. de Wergifosse,  M. Diedenhofen,  Hainam Do,  
 S. Ehlert,  Po-Tung Fang,  S. Fatehi,  Qingguo Feng,  J. Gayvert,  
 Qinghui Ge,  G. Gidofalvi,  M. Goldey,  J. Gomes,  C. Gonzalez-Espinoza,  
 S. Gulania,  A. Gunina,  M. W. D. Hanson-Heine,  P. H. P. Harbach,  
 A. W. Hauser,  M. F. Herbst,  M. Hernandez Vera,  M. Hodecker,  
 Z. C. Holden,  S. Houck,  Xunkun Huang,  Kerwin Hui,  B. C. Huynh,  
 M. Ivanov,  Hyunjun Ji,  Hanjie Jiang,  B. Kaduk,  S. Kaehler,  
 K. Khistyaev,  Jaehoon Kim,  P. Klunzinger,  Z. Koczor-Benda,  
 Joong Hoon Koh,  D. Kosenkov,  L. Koulias,  T. Kowalczyk,  C. M. Krauter,  
 K. Kue,  A. Kunitsa,  T. Kus,  A. Landau,  K. V. Lawler,  D. Lefrancois,  
 S. Lehtola,  Rain Li,  Yi-Pei Li,  Jiashu Liang,  M. Liebenthal,  
 Hung-Hsuan Lin,  You-Sheng Lin,  Fenglai Liu,  Kuan-Yu Liu,  
 M. Loipersberger,  A. Luenser,  A. Manjanath,  P. Manohar,  E. Mansoor,  
 S. F. Manzer,  Shan-Ping Mao,  A. V. Marenich,  T. Markovich,  S. Mason,  
 S. A. Maurer,  P. F. McLaughlin,  M. F. S. J. Menger,  J.-M. Mewes,  
 S. A. Mewes,  P. Morgante,  J. W. Mullinax,  T. S. Nguyen-Beck,  
 K. J. Oosterbaan,  G. Paran,  Alexander C. Paul,  Suranjan K. Paul,  
 F. Pavosevic,  Zheng Pei,  S. Prager,  E. I. Proynov,  E. Ramos,  B. Rana,  
 A. E. Rask,  A. Rettig,  R. M. Richard,  F. Rob,  E. Rossomme,  T. Scheele,  
 M. Scheurer,  M. Schneider,  N. Sergueev,  S. M. Sharada,  W. Skomorowski,  
 D. W. Small,  C. J. Stein,  Yu-Chuan Su,  E. J. Sundstrom,  Zhen Tao,  
 J. Thirman,  T. Tsuchimochi,  N. M. Tubman,  S. P. Veccham,  O. Vydrov,  
 J. Wenzel,  J. Witte,  A. Yamada,  Kun Yao,  S. Yeganeh,  S. R. Yost,  
 A. Zech,  Igor Ying Zhang,  Xing Zhang,  Yu Zhang,  D. Zuev,  
 A. Aspuru-Guzik,  A. T. Bell,  N. A. Besley,  K. B. Bravaya,  B. R. Brooks,  
 D. Casanova,  Jeng-Da Chai,  S. Coriani,  C. J. Cramer,  
 A. E. DePrince, III,  R. A. DiStasio Jr.,  A. Dreuw,  B. D. Dunietz,  
 T. R. Furlani,  W. A. Goddard III,  S. Grimme,  S. Hammes-Schiffer,  
 T. Head-Gordon,  W. J. Hehre,  Chao-Ping Hsu,  T.-C. Jagau,  Yousung Jung,  
 A. Klamt,  Jing Kong,  D. S. Lambrecht,  WanZhen Liang,  N. J. Mayhall,  
 C. W. McCurdy,  J. B. Neaton,  C. Ochsenfeld,  J. A. Parkhill,  R. Peverati,  
 V. A. Rassolov,  Yihan Shao,  L. V. Slipchenko,  T. Stauch,  R. P. Steele,  
 J. E. Subotnik,  A. J. W. Thom,  A. Tkatchenko,  D. G. Truhlar,  
 T. Van Voorhis,  T. A. Wesolowski,  K. B. Whaley,  H. L. Woodcock III,  
 P. M. Zimmerman,  S. Faraji,  P. M. W. Gill,  M. Head-Gordon,  
 J. M. Herbert,  A. I. Krylov

 Contributors to earlier versions of Q-Chem not listed above: 
 R. D. Adamson,  B. Austin,  R. Baer,  J. Baker,  G. J. O. Beran,  
 K. Brandhorst,  S. T. Brown,  E. F. C. Byrd,  A. K. Chakraborty,  
 G. K. L. Chan,  Chun-Min Chang,  Yunqing Chen,  C.-L. Cheng,  
 Siu Hung Chien,  D. M. Chipman,  D. L. Crittenden,  H. Dachsel,  
 R. J. Doerksen,  A. D. Dutoi,  R. G. Edgar,  J. Fosso-Tande,  
 L. Fusti-Molnar,  D. Ghosh,  A. Ghysels,  A. Golubeva-Zadorozhnaya,  
 J. Gonthier,  M. S. Gordon,  S. R. Gwaltney,  G. Hawkins,  J. E. Herr,  
 A. Heyden,  S. Hirata,  E. G. Hohenstein,  G. Kedziora,  F. J. Keil,  
 C. Kelley,  Jihan Kim,  R. A. King,  R. Z. Khaliullin,  P. P. Korambath,  
 W. Kurlancheek,  A. Laurent,  A. M. Lee,  M. S. Lee,  S. V. Levchenko,  
 Ching Yeh Lin,  D. Liotard,  E. Livshits,  R. C. Lochan,  I. Lotan,  
 L. A. Martinez-Martinez,  P. E. Maslen,  N. Nair,  D. P. O'Neill,  
 D. Neuhauser,  E. Neuscamman,  C. M. Oana,  R. Olivares-Amaya,  R. Olson,  
 T. M. Perrine,  B. Peters,  P. A. Pieniazek,  A. Prociuk,  Y. M. Rhee,  
 J. Ritchie,  M. A. Rohrdanz,  E. Rosta,  N. J. Russ,  H. F. Schaefer III,  
 M. W. Schmidt,  N. E. Schultz,  S. Sharma,  N. Shenvi,  C. D. Sherrill,  
 A. C. Simmonett,  A. Sodt,  T. Stein,  D. Stuck,  K. S. Thanthiriwatte,  
 V. Vanovschi,  L. Vogt,  Tao Wang,  A. Warshel,  M. A. Watson,  
 C. F. Williams,  Q. Wu,  X. Xu,  Jun Yang,  W. Zhang,  Yan Zhao

 Please cite Q-Chem as follows:
 Y. Shao et al., Mol. Phys. 113, 184-215 (2015)
 DOI: 10.1080/00268976.2014.952696

 Q-Chem 5.4.0 for Intel X86 EM64T Linux

 Parts of Q-Chem use Armadillo 9.800.1 (Horizon Scraper).
 http://arma.sourceforge.net/

 Q-Chem begins on Sun Jul 10 08:36:07 2022  

 Host: 
0

     Scratch files written to ./qchem2533733//
 May1621 |scratch|qcdevops|jenkins|workspace|build_RNUM    
 Processing $rem in /cm/shared/apps/spack/cpu/opt/spack/linux-centos8-zen2/gcc-10.2.0/qchem-5.4-akfmr7b3t57bfs6qan3padb2wnb2i7cl/config/preferences:
 Processing $rem in /home/theleonzhang/.qchemrc:
 Symmetry turned off for PCM/SM12/SMD calculation
 Core orbitals will be frozen

 Checking the input file for inconsistencies... 	...done.

--------------------------------------------------------------
User input:
--------------------------------------------------------------
$molecule
0 1
C	-0.229089	-0.535397	0.018946
C	0.066311	0.276103	1.118346
C	0.539611	1.576503	0.795646
H	-0.059789	-0.070397	2.155046
C	0.615111	1.783903	-0.593554
S	0.093211	0.350203	-1.467854
C	0.911711	2.598703	1.833546
H	0.766111	2.198703	2.855646
H	0.296911	3.518703	1.745146
H	1.974111	2.908303	1.745146
C	-0.229089	-1.976097	0.018946
H	-0.768989	-1.975797	-0.916454
H	0.480411	-2.679897	-0.390554
H	-1.049289	-2.494997	0.492546
H	0.939811	2.675903	-1.142654
$end

$rem
JOBTYPE		SP
EXCHANGE	HF
CORRELATION	pRIMP2
BASIS		cc-pvtz
METHOD		rimp2
AUX_BASIS	rimp2-cc-pvtz
SOLVENT_METHOD	PCM
PURECART	11111
SYMMETRY	false
MEM_TOTAL	110000
SCF_CONVERGENCE = 6
THRESH=10
$end



$solvent
dielectric 4.90
$end
--------------------------------------------------------------
 ----------------------------------------------------------------
             Standard Nuclear Orientation (Angstroms)
    I     Atom           X                Y                Z
 ----------------------------------------------------------------
    1      C      -0.2290890000    -0.5353970000     0.0189460000
    2      C       0.0663110000     0.2761030000     1.1183460000
    3      C       0.5396110000     1.5765030000     0.7956460000
    4      H      -0.0597890000    -0.0703970000     2.1550460000
    5      C       0.6151110000     1.7839030000    -0.5935540000
    6      S       0.0932110000     0.3502030000    -1.4678540000
    7      C       0.9117110000     2.5987030000     1.8335460000
    8      H       0.7661110000     2.1987030000     2.8556460000
    9      H       0.2969110000     3.5187030000     1.7451460000
   10      H       1.9741110000     2.9083030000     1.7451460000
   11      C      -0.2290890000    -1.9760970000     0.0189460000
   12      H      -0.7689890000    -1.9757970000    -0.9164540000
   13      H       0.4804110000    -2.6798970000    -0.3905540000
   14      H      -1.0492890000    -2.4949970000     0.4925460000
   15      H       0.9398110000     2.6759030000    -1.1426540000
 ----------------------------------------------------------------
 Nuclear Repulsion Energy =         345.14652398 hartrees
 There are       30 alpha and       30 beta electrons

 Q-Chem warning in module forms1/BasisType.C, line 2236:

 You are not using the predefined 5D/6D in this basis set.

 Requested basis set is cc-pVTZ
 There are 120 shells and 326 basis functions

 Total QAlloc Memory Limit 110000 MB
 Mega-Array Size       188 MB
 MEM_STATIC part       192 MB
 Discretize the solute cavity surface with Lebedev spheres
	Using 110 Lebedev grid points for each H atom
	Using 194 Lebedev grid points for other atoms
	Atomic van der Waals radii will be scaled by 1.20
 Remove points where switching function is < 1.0e-08
 Keep 1066 surface tesserae and discard 1172 interior tesserae
 Molecular Surface Area = 157.928 Angst**2

                       Distance Matrix (Angstroms)
             C (  1)   C (  2)   C (  3)   H (  4)   C (  5)   S (  6)
   C (  2)  1.398025
   C (  3)  2.377874  1.420981
   H (  4)  2.192672  1.100323  2.218001
   C (  5)  2.543026  2.346326  1.406624  3.383596
   S (  6)  1.760324  2.587401  2.612760  3.650441  1.758487
   C (  7)  3.796944  2.573069  1.503525  2.858543  2.577341  4.077369
   H (  8)  4.063569  2.684087  2.163801  2.514312  3.477332  4.749989
   H (  9)  4.437586  3.310666  2.175453  3.629999  2.929215  4.517107
   H ( 10)  4.437671  3.310749  2.175553  3.630072  2.929279  4.517193
   C ( 11)  1.440700  2.523558  3.716871  2.867626  3.901978  2.779590
   H ( 12)  1.800338  3.147887  4.154823  3.683426  4.019371  2.541202
   H ( 13)  2.295640  3.344577  4.418995  3.685293  4.470443  3.239136
   H ( 14)  2.176478  3.052079  4.381048  3.101887  4.717926  3.639181
   H ( 15)  3.609444  3.410889  2.264033  4.406381  1.096633  2.496271
             C (  7)   H (  8)   H (  9)   H ( 10)   C ( 11)   H ( 12)
   H (  8)  1.107198
   H (  9)  1.110042  1.787669
   H ( 10)  1.110117  1.787738  1.784822
   C ( 11)  5.052029  5.144535  5.783534  5.629496
   H ( 12)  5.595829  5.831957  6.197563  6.201866  1.080030
   H ( 13)  5.744237  5.866871  6.558775  6.166063  1.080007  1.527523
   H ( 14)  5.620461  5.559743  6.288549  6.317088  1.079945  1.527553
   H ( 15)  2.977334  4.030421  3.076202  3.076227  4.935255  4.960794
             H ( 13)   H ( 14)
   H ( 14)  1.775961
   H ( 15)  5.427826  5.776556
 
 Requested basis set is rimp2-cc-pVTZ
 There are 250 shells and 848 basis functions
 A cutoff of  1.0D-10 yielded   6173 shell pairs
 There are     45215 function pairs (     58144 Cartesian)
 Smallest overlap matrix eigenvalue = 1.07E-04

 Scale SEOQF with 1.000000e-01/1.000000e-01/1.000000e-01

 Standard Electronic Orientation quadrupole field applied
 Nucleus-field energy     =     0.0000000019 hartrees
 Guess from superposition of atomic densities
 Warning:  Energy on first SCF cycle will be non-variational
 SAD guess density has 60.000000 electrons

 -----------------------------------------------------------------------
  General SCF calculation program by
  Eric Jon Sundstrom, Paul Horn, Yuezhi Mao, Dmitri Zuev, Alec White,
  David Stuck, Shaama M.S., Shane Yost, Joonho Lee, David Small,
  Daniel Levine, Susi Lehtola, Hugh Burton, Evgeny Epifanovsky,
  Bang C. Huynh
 -----------------------------------------------------------------------
 Hartree-Fock
 A restricted SCF calculation will be
 performed using DIIS
 SCF converges when DIIS error is below 1.0e-06
 ---------------------------------------
  Cycle       Energy         DIIS error
 ---------------------------------------
    1    -632.1102230865      2.92e-02  
    2    -629.3324185634      1.93e-03  
    3    -629.4027734786      6.74e-04  
    4    -629.4102714171      3.36e-04  
    5    -629.4123165982      6.44e-05  
    6    -629.4124546779      2.62e-05  
    7    -629.4124900096      1.19e-05  
    8    -629.4124998880      4.95e-06  
    9    -629.4125013787      1.85e-06  
   10    -629.4125015666      5.26e-07  Convergence criterion met
 ---------------------------------------
 SCF time:   CPU 144.22s  wall 145.00s 

************** Final PCM Free Energy Summary **************
 G_electrostatic  =      -0.00505167 hartree =      -3.16997215 kcal/mol
 G_cavitation     =       0.00000000 hartree =       0.00000000 kcal/mol
 G_dispersion     =       0.00000000 hartree =       0.00000000 kcal/mol
 G_repulsion      =       0.00000000 hartree =       0.00000000 kcal/mol
 --------------------------------------------------
 Non-electrostatic Free Energy =       0.00000000 hartree =       0.00000000 kcal/mol
 Total                         =      -0.00505167 hartree =      -3.16997215 kcal/mol
 --------------------------------------------------
 SCF Energy (H0 + V/2)                       =    -629.41250157 
 Solute Internal Energy (H0)                 =    -629.40744989 
 Total Free Energy (H0 + V/2 + non-elec)     =    -629.41250157 hartree
                                             = -394962.30589883 kcal/mol
***********************************************************

 SCF   energy in the final basis set =     -629.4125015666
 Total energy in the final basis set =     -629.4125015666


 --------------------------------------------------------------
  Generalized many-body perturbation theory program
  by Joonho Lee, Fazle Rob, Xintian Feng, Evgeny Epifanovsky

 No regularization used 
 (reg. param. = 0.0000e+00)
  (P|Q)^-1/2 Time:  CPU 0.49 s  wall 0.49 s

 In RI-MP2 calculation: 
 # of frozen core orbitals: 11

 Components of the RIMP2 correlation energy:
        aaaa    correlation energy =        -0.1458187353 a.u.
        abab    correlation energy =        -0.8878572556 a.u.
        bbbb    correlation energy =        -0.1458187353 a.u.
        non-Brillouin singles      =        -0.0000000000 a.u.
        total same-spin energy     =        -0.2916374707 a.u.
        total opposite-spin energy =        -0.8878572556 a.u.

 Total  RIMP2   correlation energy =        -1.1794947263 a.u.
        RIMP2         total energy =      -630.5919962929 a.u.

 RI-MP2 Energy Time:  CPU 11.11 s  wall 11.14 s
 
 --------------------------------------------------------------
 
                    Orbital Energies (a.u.)
 --------------------------------------------------------------
 
 Alpha MOs
 -- Occupied --
-91.9796 -11.2725 -11.2596 -11.2473 -11.2308 -11.2270 -11.2151  -8.9795
 -6.6604  -6.6599  -6.6593  -1.1616  -1.0546  -0.9956  -0.9455  -0.8819
 -0.7477  -0.7195  -0.6467  -0.5900  -0.5756  -0.5692  -0.5514  -0.5469
 -0.5113  -0.4814  -0.4638  -0.4471  -0.3382  -0.3002
 -- Virtual --
  0.0978   0.1422   0.1500   0.1755   0.1868   0.1918   0.1998   0.2250
  0.2349   0.2457   0.2480   0.2725   0.2918   0.3126   0.3379   0.3495
  0.3788   0.3989   0.4020   0.4172   0.4357   0.4663   0.4740   0.4815
  0.4907   0.4979   0.5212   0.5350   0.5434   0.5553   0.5836   0.5901
  0.5988   0.6076   0.6131   0.6167   0.6295   0.6381   0.6450   0.6517
  0.6546   0.6658   0.6816   0.7127   0.7360   0.7409   0.7590   0.7752
  0.7985   0.8314   0.8419   0.8614   0.8664   0.8908   0.9027   0.9181
  0.9367   0.9604   0.9996   1.0065   1.0231   1.0542   1.0646   1.0770
  1.0815   1.0915   1.1122   1.1479   1.1623   1.1800   1.2030   1.2184
  1.2277   1.2349   1.2512   1.2521   1.2759   1.2921   1.3113   1.3309
  1.3397   1.3590   1.3946   1.4082   1.4293   1.4348   1.4527   1.4793
  1.4889   1.5146   1.5293   1.5319   1.5572   1.5734   1.5770   1.5808
  1.6222   1.6252   1.6431   1.6716   1.6905   1.6926   1.7090   1.7443
  1.7593   1.7778   1.8118   1.8299   1.8814   1.9129   1.9250   1.9720
  1.9874   2.0417   2.0876   2.1229   2.1716   2.1890   2.2151   2.2224
  2.2587   2.2799   2.3505   2.4173   2.4559   2.5007   2.5437   2.5636
  2.5716   2.5997   2.6347   2.6648   2.6845   2.7009   2.7015   2.7361
  2.7493   2.7622   2.7809   2.7913   2.8221   2.8381   2.8440   2.8689
  2.9045   2.9307   2.9643   2.9746   2.9992   3.0104   3.0484   3.0488
  3.0953   3.1069   3.1146   3.1413   3.1502   3.1635   3.1843   3.1971
  3.2051   3.2469   3.2659   3.2813   3.2840   3.3085   3.3122   3.3276
  3.3439   3.3539   3.3723   3.3875   3.3951   3.4114   3.4274   3.4397
  3.4510   3.4657   3.4858   3.4957   3.5134   3.5231   3.5401   3.5561
  3.5844   3.5926   3.6065   3.6185   3.6328   3.6391   3.6597   3.6905
  3.7041   3.7137   3.7198   3.7516   3.7660   3.7838   3.7991   3.8036
  3.8145   3.8334   3.8680   3.8863   3.8960   3.9125   3.9405   3.9458
  3.9734   3.9943   4.0064   4.0298   4.0461   4.0585   4.0866   4.1049
  4.1415   4.1520   4.1613   4.1727   4.2077   4.2183   4.2327   4.2532
  4.2816   4.2879   4.3233   4.3409   4.3476   4.3635   4.3764   4.3855
  4.4026   4.4340   4.4416   4.4589   4.4796   4.4910   4.5218   4.5475
  4.5997   4.6127   4.6489   4.6627   4.7192   4.7530   4.7632   4.7925
  4.7993   4.8084   4.8484   4.8978   4.9089   4.9773   5.0819   5.0966
  5.1272   5.1385   5.1642   5.1938   5.2445   5.2811   5.2845   5.3127
  5.3641   5.4032   5.4153   5.4302   5.4696   5.4965   5.5430   5.5608
  5.5979   5.6133   5.6236   5.6931   5.7367   5.8083   5.8262   5.8749
  5.9450   5.9606   6.0715   6.1224   6.2272   6.2475   6.2980   6.3786
  6.4373   6.4757   9.1488  11.4222  12.9084  13.9161  14.1911  14.3762
 --------------------------------------------------------------
 
          Ground-State Mulliken Net Atomic Charges

     Atom                 Charge (a.u.)
  ----------------------------------------
      1 C                     0.013327
      2 C                    -0.247362
      3 C                     0.033224
      4 H                     0.180220
      5 C                    -0.248750
      6 S                    -0.001474
      7 C                    -0.272359
      8 H                     0.101802
      9 H                     0.106833
     10 H                     0.106570
     11 C                    -0.359661
     12 H                     0.113579
     13 H                     0.145745
     14 H                     0.133722
     15 H                     0.194585
  ----------------------------------------
  Sum of atomic charges =     0.000000

 -----------------------------------------------------------------
                    Cartesian Multipole Moments
 -----------------------------------------------------------------
    Charge (ESU x 10^10)
                -0.0000
    Dipole Moment (Debye)
         X       0.2301      Y       0.0423      Z       0.9778
       Tot       1.0054
    Quadrupole Moments (Debye-Ang)
        XX     -52.7768     XY       3.5041     YY     -43.2922
        XZ      -0.1514     YZ       1.2762     ZZ     -48.6923
    Octopole Moments (Debye-Ang^2)
       XXX     -36.4823    XXY     -27.7040    XYY      -6.6696
       YYY     -74.6987    XXZ      -1.7835    XYZ      -0.1932
       YYZ      -7.0896    XZZ     -10.1778    YZZ     -21.9694
       ZZZ       2.2948
    Hexadecapole Moments (Debye-Ang^3)
      XXXX    -147.4748   XXXY    -104.3696   XXYY    -151.6789
      XYYY     -90.0371   YYYY    -751.6487   XXXZ     -32.3244
      XXYZ     -31.6856   XYYZ     -17.4979   YYYZ     -93.9283
      XXZZ    -110.5104   XYZZ     -29.2038   YYZZ    -206.1964
      XZZZ     -34.8989   YZZZ     -98.1981   ZZZZ    -482.1293
 -----------------------------------------------------------------
 Total job time:  158.63s(wall), 155.72s(cpu) 
 Sun Jul 10 08:38:46 2022

        *************************************************************
        *                                                           *
        *  Thank you very much for using Q-Chem.  Have a nice day.  *
        *                                                           *
        *************************************************************


remove work dirs ./qchem2533733.0 -- ./qchem2533733.-1
rm -rf ./qchem2533733
