You are running Q-Chem version: 5.4.0

#
# job setting
#
local host:  exp-1-55
current dir: /expanse/lustre/scratch/theleonzhang/temp_project/Hydrogenated_Impropers_Test
input file:  Methylthiophene_Phi_20_Theta_350_Methylthiophene_Hydrogenated_Improper_Alternate.qcin
output file: 
nprocs     : 0
nthreads   : 1
#
# qchem installation setting
#
QC:          /cm/shared/apps/spack/cpu/opt/spack/linux-centos8-zen2/gcc-10.2.0/qchem-5.4-akfmr7b3t57bfs6qan3padb2wnb2i7cl
QCAUX:       /cm/shared/apps/spack/cpu/opt/spack/linux-centos8-zen2/gcc-10.2.0/qchem-5.4-akfmr7b3t57bfs6qan3padb2wnb2i7cl/qcaux
QCPROG:      /cm/shared/apps/spack/cpu/opt/spack/linux-centos8-zen2/gcc-10.2.0/qchem-5.4-akfmr7b3t57bfs6qan3padb2wnb2i7cl/exe/qcprog.exe_s
QCPROG_S:    /cm/shared/apps/spack/cpu/opt/spack/linux-centos8-zen2/gcc-10.2.0/qchem-5.4-akfmr7b3t57bfs6qan3padb2wnb2i7cl/exe/qcprog.exe_s
PARALLEL:    -DSERIAL
QCMPI:       mpich
#
# qchem directory setting
#
qcrun:       qchem1539758
QCSCRATCH:   .
QCLOCALSCR:  
QCTMPDIR:    .
QCFILEPREF:  ./qchem1539758
QCSAVEDIR:   
workdirs:    ./qchem1539758
workdir0:    ./qchem1539758
partmpdirs =  
#
# parallel setting
#
QCRSH:           ssh
QCMPI:           mpich
QCMPIRUN:        /cm/shared/apps/spack/cpu/opt/spack/linux-centos8-zen2/gcc-10.2.0/qchem-5.4-akfmr7b3t57bfs6qan3padb2wnb2i7cl/bin/mpi/mpirun_qchem
QCMACHINEFILE:   ./qchem1539758/hostfile

#
# env setting
#
exported envs:   QC QCAUX QCSCRATCH QCRUNNAME QCFILEPREF QCPROG QCPROG_S GUIFILE

Running Job 1 of 1 Methylthiophene_Phi_20_Theta_350_Methylthiophene_Hydrogenated_Improper_Alternate.qcin
qchem Methylthiophene_Phi_20_Theta_350_Methylthiophene_Hydrogenated_Improper_Alternate.qcin_1539758.0 ./qchem1539758/ 0
/cm/shared/apps/spack/cpu/opt/spack/linux-centos8-zen2/gcc-10.2.0/qchem-5.4-akfmr7b3t57bfs6qan3padb2wnb2i7cl/exe/qcprog.exe_s Methylthiophene_Phi_20_Theta_350_Methylthiophene_Hydrogenated_Improper_Alternate.qcin_1539758.0 ./qchem1539758/
                  Welcome to Q-Chem
     A Quantum Leap Into The Future Of Chemistry


 Q-Chem 5.4, Q-Chem, Inc., Pleasanton, CA (2021)

 License issued to: University of California, San Diego (site)

 E. Epifanovsky,  A. T. B. Gilbert,  Xintian Feng,  Joonho Lee,  Yuezhi Mao,  
 N. Mardirossian,  P. Pokhilko,  A. White,  M. Wormit,  M. P. Coons,  
 A. L. Dempwolff,  Zhengting Gan,  D. Hait,  P. R. Horn,  L. D. Jacobson,  
 I. Kaliman,  J. Kussmann,  A. W. Lange,  Ka Un Lao,  D. S. Levine,  Jie Liu,  
 S. C. McKenzie,  A. F. Morrison,  K. Nanda,  F. Plasser,  D. R. Rehn,  
 M. L. Vidal,  Zhi-Qiang You,  Ying Zhu,  B. Alam,  B. Albrecht,  
 A. Aldossary,  E. Alguire,  J. H. Andersen,  D. Barton,  K. Begam,  A. Behn,  
 Y. A. Bernard,  E. J. Berquist,  H. Burton,  A. Carreras,  K. Carter-Fenk,  
 R. Chakraborty,  A. D. Chien,  K. D. Closser,  V. Cofer-Shabica,  
 S. Dasgupta,  Jia Deng,  M. de Wergifosse,  M. Diedenhofen,  Hainam Do,  
 S. Ehlert,  Po-Tung Fang,  S. Fatehi,  Qingguo Feng,  J. Gayvert,  
 Qinghui Ge,  G. Gidofalvi,  M. Goldey,  J. Gomes,  C. Gonzalez-Espinoza,  
 S. Gulania,  A. Gunina,  M. W. D. Hanson-Heine,  P. H. P. Harbach,  
 A. W. Hauser,  M. F. Herbst,  M. Hernandez Vera,  M. Hodecker,  
 Z. C. Holden,  S. Houck,  Xunkun Huang,  Kerwin Hui,  B. C. Huynh,  
 M. Ivanov,  Hyunjun Ji,  Hanjie Jiang,  B. Kaduk,  S. Kaehler,  
 K. Khistyaev,  Jaehoon Kim,  P. Klunzinger,  Z. Koczor-Benda,  
 Joong Hoon Koh,  D. Kosenkov,  L. Koulias,  T. Kowalczyk,  C. M. Krauter,  
 K. Kue,  A. Kunitsa,  T. Kus,  A. Landau,  K. V. Lawler,  D. Lefrancois,  
 S. Lehtola,  Rain Li,  Yi-Pei Li,  Jiashu Liang,  M. Liebenthal,  
 Hung-Hsuan Lin,  You-Sheng Lin,  Fenglai Liu,  Kuan-Yu Liu,  
 M. Loipersberger,  A. Luenser,  A. Manjanath,  P. Manohar,  E. Mansoor,  
 S. F. Manzer,  Shan-Ping Mao,  A. V. Marenich,  T. Markovich,  S. Mason,  
 S. A. Maurer,  P. F. McLaughlin,  M. F. S. J. Menger,  J.-M. Mewes,  
 S. A. Mewes,  P. Morgante,  J. W. Mullinax,  T. S. Nguyen-Beck,  
 K. J. Oosterbaan,  G. Paran,  Alexander C. Paul,  Suranjan K. Paul,  
 F. Pavosevic,  Zheng Pei,  S. Prager,  E. I. Proynov,  E. Ramos,  B. Rana,  
 A. E. Rask,  A. Rettig,  R. M. Richard,  F. Rob,  E. Rossomme,  T. Scheele,  
 M. Scheurer,  M. Schneider,  N. Sergueev,  S. M. Sharada,  W. Skomorowski,  
 D. W. Small,  C. J. Stein,  Yu-Chuan Su,  E. J. Sundstrom,  Zhen Tao,  
 J. Thirman,  T. Tsuchimochi,  N. M. Tubman,  S. P. Veccham,  O. Vydrov,  
 J. Wenzel,  J. Witte,  A. Yamada,  Kun Yao,  S. Yeganeh,  S. R. Yost,  
 A. Zech,  Igor Ying Zhang,  Xing Zhang,  Yu Zhang,  D. Zuev,  
 A. Aspuru-Guzik,  A. T. Bell,  N. A. Besley,  K. B. Bravaya,  B. R. Brooks,  
 D. Casanova,  Jeng-Da Chai,  S. Coriani,  C. J. Cramer,  
 A. E. DePrince, III,  R. A. DiStasio Jr.,  A. Dreuw,  B. D. Dunietz,  
 T. R. Furlani,  W. A. Goddard III,  S. Grimme,  S. Hammes-Schiffer,  
 T. Head-Gordon,  W. J. Hehre,  Chao-Ping Hsu,  T.-C. Jagau,  Yousung Jung,  
 A. Klamt,  Jing Kong,  D. S. Lambrecht,  WanZhen Liang,  N. J. Mayhall,  
 C. W. McCurdy,  J. B. Neaton,  C. Ochsenfeld,  J. A. Parkhill,  R. Peverati,  
 V. A. Rassolov,  Yihan Shao,  L. V. Slipchenko,  T. Stauch,  R. P. Steele,  
 J. E. Subotnik,  A. J. W. Thom,  A. Tkatchenko,  D. G. Truhlar,  
 T. Van Voorhis,  T. A. Wesolowski,  K. B. Whaley,  H. L. Woodcock III,  
 P. M. Zimmerman,  S. Faraji,  P. M. W. Gill,  M. Head-Gordon,  
 J. M. Herbert,  A. I. Krylov

 Contributors to earlier versions of Q-Chem not listed above: 
 R. D. Adamson,  B. Austin,  R. Baer,  J. Baker,  G. J. O. Beran,  
 K. Brandhorst,  S. T. Brown,  E. F. C. Byrd,  A. K. Chakraborty,  
 G. K. L. Chan,  Chun-Min Chang,  Yunqing Chen,  C.-L. Cheng,  
 Siu Hung Chien,  D. M. Chipman,  D. L. Crittenden,  H. Dachsel,  
 R. J. Doerksen,  A. D. Dutoi,  R. G. Edgar,  J. Fosso-Tande,  
 L. Fusti-Molnar,  D. Ghosh,  A. Ghysels,  A. Golubeva-Zadorozhnaya,  
 J. Gonthier,  M. S. Gordon,  S. R. Gwaltney,  G. Hawkins,  J. E. Herr,  
 A. Heyden,  S. Hirata,  E. G. Hohenstein,  G. Kedziora,  F. J. Keil,  
 C. Kelley,  Jihan Kim,  R. A. King,  R. Z. Khaliullin,  P. P. Korambath,  
 W. Kurlancheek,  A. Laurent,  A. M. Lee,  M. S. Lee,  S. V. Levchenko,  
 Ching Yeh Lin,  D. Liotard,  E. Livshits,  R. C. Lochan,  I. Lotan,  
 L. A. Martinez-Martinez,  P. E. Maslen,  N. Nair,  D. P. O'Neill,  
 D. Neuhauser,  E. Neuscamman,  C. M. Oana,  R. Olivares-Amaya,  R. Olson,  
 T. M. Perrine,  B. Peters,  P. A. Pieniazek,  A. Prociuk,  Y. M. Rhee,  
 J. Ritchie,  M. A. Rohrdanz,  E. Rosta,  N. J. Russ,  H. F. Schaefer III,  
 M. W. Schmidt,  N. E. Schultz,  S. Sharma,  N. Shenvi,  C. D. Sherrill,  
 A. C. Simmonett,  A. Sodt,  T. Stein,  D. Stuck,  K. S. Thanthiriwatte,  
 V. Vanovschi,  L. Vogt,  Tao Wang,  A. Warshel,  M. A. Watson,  
 C. F. Williams,  Q. Wu,  X. Xu,  Jun Yang,  W. Zhang,  Yan Zhao

 Please cite Q-Chem as follows:
 Y. Shao et al., Mol. Phys. 113, 184-215 (2015)
 DOI: 10.1080/00268976.2014.952696

 Q-Chem 5.4.0 for Intel X86 EM64T Linux

 Parts of Q-Chem use Armadillo 9.800.1 (Horizon Scraper).
 http://arma.sourceforge.net/

 Q-Chem begins on Sun Jul 10 10:52:43 2022  

 Host: 
0

     Scratch files written to ./qchem1539758//
 May1621 |scratch|qcdevops|jenkins|workspace|build_RNUM    
 Processing $rem in /cm/shared/apps/spack/cpu/opt/spack/linux-centos8-zen2/gcc-10.2.0/qchem-5.4-akfmr7b3t57bfs6qan3padb2wnb2i7cl/config/preferences:
 Processing $rem in /home/theleonzhang/.qchemrc:
 Symmetry turned off for PCM/SM12/SMD calculation
 Core orbitals will be frozen

 Checking the input file for inconsistencies... 	...done.

--------------------------------------------------------------
User input:
--------------------------------------------------------------
$molecule
0 1
C	-0.236890	-0.535395	0.015308
C	0.058510	0.276105	1.114708
C	0.531810	1.576505	0.792008
H	-0.067590	-0.070395	2.151408
C	0.607310	1.783905	-0.597192
S	0.085410	0.350205	-1.471492
C	0.903910	2.598705	1.829908
H	0.758310	2.198705	2.852008
H	0.289110	3.518705	1.741508
H	1.966310	2.908305	1.741508
C	-0.236890	-1.976095	0.015308
H	0.826710	-1.976295	-0.172092
H	-0.379090	-2.679895	-0.791492
H	-0.072390	-2.494995	0.948008
H	0.932010	2.675905	-1.146292
$end

$rem
JOBTYPE		SP
EXCHANGE	HF
CORRELATION	pRIMP2
BASIS		cc-pvtz
METHOD		rimp2
AUX_BASIS	rimp2-cc-pvtz
SOLVENT_METHOD	PCM
PURECART	11111
SYMMETRY	false
MEM_TOTAL	110000
SCF_CONVERGENCE = 6
THRESH=10
$end



$solvent
dielectric 4.90
$end
--------------------------------------------------------------
 ----------------------------------------------------------------
             Standard Nuclear Orientation (Angstroms)
    I     Atom           X                Y                Z
 ----------------------------------------------------------------
    1      C      -0.2368900000    -0.5353950000     0.0153080000
    2      C       0.0585100000     0.2761050000     1.1147080000
    3      C       0.5318100000     1.5765050000     0.7920080000
    4      H      -0.0675900000    -0.0703950000     2.1514080000
    5      C       0.6073100000     1.7839050000    -0.5971920000
    6      S       0.0854100000     0.3502050000    -1.4714920000
    7      C       0.9039100000     2.5987050000     1.8299080000
    8      H       0.7583100000     2.1987050000     2.8520080000
    9      H       0.2891100000     3.5187050000     1.7415080000
   10      H       1.9663100000     2.9083050000     1.7415080000
   11      C      -0.2368900000    -1.9760950000     0.0153080000
   12      H       0.8267100000    -1.9762950000    -0.1720920000
   13      H      -0.3790900000    -2.6798950000    -0.7914920000
   14      H      -0.0723900000    -2.4949950000     0.9480080000
   15      H       0.9320100000     2.6759050000    -1.1462920000
 ----------------------------------------------------------------
 Nuclear Repulsion Energy =         345.42928757 hartrees
 There are       30 alpha and       30 beta electrons

 Q-Chem warning in module forms1/BasisType.C, line 2236:

 You are not using the predefined 5D/6D in this basis set.

 Requested basis set is cc-pVTZ
 There are 120 shells and 326 basis functions

 Total QAlloc Memory Limit 110000 MB
 Mega-Array Size       188 MB
 MEM_STATIC part       192 MB
 Discretize the solute cavity surface with Lebedev spheres
	Using 110 Lebedev grid points for each H atom
	Using 194 Lebedev grid points for other atoms
	Atomic van der Waals radii will be scaled by 1.20
 Remove points where switching function is < 1.0e-08
 Keep 1066 surface tesserae and discard 1172 interior tesserae
 Molecular Surface Area = 158.257 Angst**2

                       Distance Matrix (Angstroms)
             C (  1)   C (  2)   C (  3)   H (  4)   C (  5)   S (  6)
   C (  2)  1.398025
   C (  3)  2.377874  1.420981
   H (  4)  2.192672  1.100323  2.218001
   C (  5)  2.543026  2.346326  1.406624  3.383596
   S (  6)  1.760324  2.587401  2.612760  3.650441  1.758487
   C (  7)  3.796944  2.573069  1.503525  2.858543  2.577341  4.077369
   H (  8)  4.063569  2.684087  2.163801  2.514312  3.477332  4.749989
   H (  9)  4.437586  3.310666  2.175453  3.629999  2.929215  4.517107
   H ( 10)  4.437671  3.310749  2.175553  3.630072  2.929279  4.517193
   C ( 11)  1.440700  2.523558  3.716871  2.867626  3.901978  2.779590
   H ( 12)  1.800710  2.705419  3.693080  3.135423  3.790508  2.765966
   H ( 13)  2.295654  3.544436  4.631863  3.945527  4.575614  3.140011
   H ( 14)  2.176470  2.779194  4.119042  2.706821  4.599850  3.738187
   H ( 15)  3.609444  3.410889  2.264033  4.406381  1.096633  2.496271
             C (  7)   H (  8)   H (  9)   H ( 10)   C ( 11)   H ( 12)
   H (  8)  1.107198
   H (  9)  1.110042  1.787669
   H ( 10)  1.110117  1.787738  1.784822
   C ( 11)  5.052029  5.144535  5.783534  5.629496
   H ( 12)  4.994456  5.155626  5.843450  5.368414  1.079983
   H ( 13)  6.031703  6.194313  6.729430  6.568483  1.080038  1.527306
   H ( 14)  5.260864  5.132845  6.076587  5.829373  1.079929  1.527107
   H ( 15)  2.977334  4.030421  3.076202  3.076227  4.935255  4.754274
             H ( 13)   H ( 14)
   H ( 14)  1.775982
   H ( 15)  5.525347  5.668608
 
 Requested basis set is rimp2-cc-pVTZ
 There are 250 shells and 848 basis functions
 A cutoff of  1.0D-10 yielded   6197 shell pairs
 There are     45431 function pairs (     58439 Cartesian)
 Smallest overlap matrix eigenvalue = 1.03E-04

 Scale SEOQF with 1.000000e-01/1.000000e-01/1.000000e-01

 Standard Electronic Orientation quadrupole field applied
 Nucleus-field energy     =     0.0000000018 hartrees
 Guess from superposition of atomic densities
 Warning:  Energy on first SCF cycle will be non-variational
 SAD guess density has 60.000000 electrons

 -----------------------------------------------------------------------
  General SCF calculation program by
  Eric Jon Sundstrom, Paul Horn, Yuezhi Mao, Dmitri Zuev, Alec White,
  David Stuck, Shaama M.S., Shane Yost, Joonho Lee, David Small,
  Daniel Levine, Susi Lehtola, Hugh Burton, Evgeny Epifanovsky,
  Bang C. Huynh
 -----------------------------------------------------------------------
 Hartree-Fock
 A restricted SCF calculation will be
 performed using DIIS
 SCF converges when DIIS error is below 1.0e-06
 ---------------------------------------
  Cycle       Energy         DIIS error
 ---------------------------------------
    1    -632.1103638116      2.92e-02  
    2    -629.3390280000      1.95e-03  
    3    -629.4094284874      7.01e-04  
    4    -629.4171055015      3.63e-04  
    5    -629.4193871475      6.24e-05  
    6    -629.4195216419      2.61e-05  
    7    -629.4195546622      1.13e-05  
    8    -629.4195639584      5.21e-06  
    9    -629.4195654919      1.72e-06  
   10    -629.4195656909      7.03e-07  Convergence criterion met
 ---------------------------------------
 SCF time:   CPU 146.70s  wall 148.00s 

************** Final PCM Free Energy Summary **************
 G_electrostatic  =      -0.00565159 hartree =      -3.54642393 kcal/mol
 G_cavitation     =       0.00000000 hartree =       0.00000000 kcal/mol
 G_dispersion     =       0.00000000 hartree =       0.00000000 kcal/mol
 G_repulsion      =       0.00000000 hartree =       0.00000000 kcal/mol
 --------------------------------------------------
 Non-electrostatic Free Energy =       0.00000000 hartree =       0.00000000 kcal/mol
 Total                         =      -0.00565159 hartree =      -3.54642393 kcal/mol
 --------------------------------------------------
 SCF Energy (H0 + V/2)                       =    -629.41956569 
 Solute Internal Energy (H0)                 =    -629.41391410 
 Total Free Energy (H0 + V/2 + non-elec)     =    -629.41956569 hartree
                                             = -394966.73870373 kcal/mol
***********************************************************

 SCF   energy in the final basis set =     -629.4195656909
 Total energy in the final basis set =     -629.4195656909


 --------------------------------------------------------------
  Generalized many-body perturbation theory program
  by Joonho Lee, Fazle Rob, Xintian Feng, Evgeny Epifanovsky

 No regularization used 
 (reg. param. = 0.0000e+00)
  (P|Q)^-1/2 Time:  CPU 0.50 s  wall 0.50 s

 In RI-MP2 calculation: 
 # of frozen core orbitals: 11

 Components of the RIMP2 correlation energy:
        aaaa    correlation energy =        -0.1452751583 a.u.
        abab    correlation energy =        -0.8858702142 a.u.
        bbbb    correlation energy =        -0.1452751583 a.u.
        non-Brillouin singles      =        -0.0000000000 a.u.
        total same-spin energy     =        -0.2905503166 a.u.
        total opposite-spin energy =        -0.8858702142 a.u.

 Total  RIMP2   correlation energy =        -1.1764205308 a.u.
        RIMP2         total energy =      -630.5959862217 a.u.

 RI-MP2 Energy Time:  CPU 11.60 s  wall 11.64 s
 
 --------------------------------------------------------------
 
                    Orbital Energies (a.u.)
 --------------------------------------------------------------
 
 Alpha MOs
 -- Occupied --
-91.9767 -11.2846 -11.2510 -11.2474 -11.2267 -11.2249 -11.2225  -8.9768
 -6.6578  -6.6572  -6.6566  -1.1623  -1.0568  -0.9968  -0.9417  -0.8821
 -0.7449  -0.7194  -0.6472  -0.5893  -0.5787  -0.5679  -0.5513  -0.5467
 -0.5071  -0.4943  -0.4649  -0.4557  -0.3393  -0.2886
 -- Virtual --
  0.1057   0.1452   0.1511   0.1753   0.1874   0.1962   0.2118   0.2176
  0.2202   0.2457   0.2482   0.2582   0.2967   0.3308   0.3437   0.3501
  0.3836   0.3931   0.4034   0.4226   0.4341   0.4608   0.4669   0.4816
  0.4974   0.5000   0.5232   0.5326   0.5381   0.5534   0.5659   0.5917
  0.5938   0.6053   0.6116   0.6240   0.6317   0.6405   0.6456   0.6482
  0.6525   0.6732   0.6863   0.6905   0.7240   0.7533   0.7677   0.7982
  0.8033   0.8259   0.8407   0.8488   0.8624   0.8792   0.8955   0.9329
  0.9508   0.9688   1.0039   1.0223   1.0312   1.0527   1.0702   1.0769
  1.0790   1.1065   1.1091   1.1243   1.1568   1.1658   1.1789   1.2043
  1.2378   1.2452   1.2491   1.2631   1.2728   1.3034   1.3063   1.3322
  1.3630   1.3892   1.3975   1.4149   1.4323   1.4396   1.4495   1.4730
  1.4832   1.5017   1.5157   1.5238   1.5377   1.5487   1.5551   1.5819
  1.5907   1.6279   1.6423   1.6721   1.6891   1.6996   1.7227   1.7539
  1.7661   1.7841   1.8025   1.8282   1.9036   1.9239   1.9404   1.9754
  2.0173   2.0391   2.1074   2.1220   2.1803   2.1883   2.2279   2.2575
  2.2775   2.2957   2.3479   2.4153   2.4342   2.4809   2.4856   2.5460
  2.5634   2.5822   2.6227   2.6498   2.6728   2.6923   2.7092   2.7423
  2.7534   2.7717   2.7782   2.7982   2.8282   2.8491   2.8658   2.8848
  2.8980   2.9367   2.9649   2.9964   3.0032   3.0386   3.0499   3.0851
  3.0979   3.1079   3.1145   3.1317   3.1548   3.1601   3.1720   3.1924
  3.1966   3.2439   3.2651   3.2833   3.2846   3.2947   3.3109   3.3254
  3.3354   3.3496   3.3845   3.3856   3.4063   3.4227   3.4255   3.4460
  3.4532   3.4786   3.4879   3.4952   3.5171   3.5208   3.5329   3.5616
  3.5754   3.5903   3.6099   3.6201   3.6290   3.6344   3.6539   3.6819
  3.6893   3.7104   3.7179   3.7364   3.7501   3.7674   3.7924   3.8050
  3.8234   3.8319   3.8654   3.8839   3.8956   3.9040   3.9316   3.9606
  3.9894   3.9995   4.0111   4.0321   4.0447   4.0778   4.0945   4.1062
  4.1163   4.1501   4.1693   4.2042   4.2234   4.2256   4.2473   4.2738
  4.2972   4.3000   4.3197   4.3368   4.3454   4.3836   4.4031   4.4064
  4.4106   4.4240   4.4542   4.4599   4.4902   4.5105   4.5429   4.5777
  4.5943   4.5998   4.6444   4.6857   4.7142   4.7370   4.7588   4.7642
  4.8074   4.8236   4.8717   4.8926   4.9003   4.9210   5.0987   5.1031
  5.1075   5.1396   5.1455   5.1941   5.2180   5.2614   5.2841   5.3363
  5.3708   5.4049   5.4193   5.4377   5.4639   5.5141   5.5482   5.5685
  5.5927   5.6027   5.6210   5.6644   5.6977   5.8112   5.8191   5.8613
  5.9452   5.9608   6.0686   6.1873   6.2286   6.2534   6.3113   6.3895
  6.4307   6.5436   9.1874  11.3775  12.9024  13.7357  14.1820  14.5694
 --------------------------------------------------------------
 
          Ground-State Mulliken Net Atomic Charges

     Atom                 Charge (a.u.)
  ----------------------------------------
      1 C                     0.064270
      2 C                    -0.326724
      3 C                     0.062481
      4 H                     0.176689
      5 C                    -0.278861
      6 S                    -0.003529
      7 C                    -0.271447
      8 H                     0.101452
      9 H                     0.107587
     10 H                     0.107147
     11 C                    -0.373588
     12 H                     0.147641
     13 H                     0.157115
     14 H                     0.137366
     15 H                     0.192399
  ----------------------------------------
  Sum of atomic charges =     0.000000

 -----------------------------------------------------------------
                    Cartesian Multipole Moments
 -----------------------------------------------------------------
    Charge (ESU x 10^10)
                -0.0000
    Dipole Moment (Debye)
         X       1.1117      Y      -0.6965      Z       1.3334
       Tot       1.8706
    Quadrupole Moments (Debye-Ang)
        XX     -53.7467     XY       1.4771     YY     -42.8452
        XZ       0.2590     YZ       0.6654     ZZ     -48.6131
    Octopole Moments (Debye-Ang^2)
       XXX     -37.5889    XXY     -26.1468    XYY      -3.9370
       YYY     -78.5488    XXZ      -2.2888    XYZ      -1.3369
       YYZ      -5.1220    XZZ     -10.7400    YZZ     -24.2816
       ZZZ       1.2048
    Hexadecapole Moments (Debye-Ang^3)
      XXXX    -143.4251   XXXY    -101.0183   XXYY    -157.7772
      XYYY     -91.1143   YYYY    -747.8374   XXXZ     -31.5730
      XXYZ     -29.5810   XYYZ     -12.6504   YYYZ     -92.1816
      XXZZ    -110.8865   XYZZ     -26.9743   YYZZ    -200.1950
      XZZZ     -34.8747   YZZZ     -95.5232   ZZZZ    -484.3371
 -----------------------------------------------------------------
 Total job time:  160.16s(wall), 158.70s(cpu) 
 Sun Jul 10 10:55:23 2022

        *************************************************************
        *                                                           *
        *  Thank you very much for using Q-Chem.  Have a nice day.  *
        *                                                           *
        *************************************************************


remove work dirs ./qchem1539758.0 -- ./qchem1539758.-1
rm -rf ./qchem1539758
You are running Q-Chem version: 5.4.0

#
# job setting
#
local host:  exp-13-53
current dir: /expanse/lustre/scratch/theleonzhang/temp_project/Hydrogenated_Impropers_Test
input file:  Methylthiophene_Phi_20_Theta_350_Methylthiophene_Hydrogenated_Improper_Alternate.qcin
output file: 
nprocs     : 0
nthreads   : 1
#
# qchem installation setting
#
QC:          /cm/shared/apps/spack/cpu/opt/spack/linux-centos8-zen2/gcc-10.2.0/qchem-5.4-akfmr7b3t57bfs6qan3padb2wnb2i7cl
QCAUX:       /cm/shared/apps/spack/cpu/opt/spack/linux-centos8-zen2/gcc-10.2.0/qchem-5.4-akfmr7b3t57bfs6qan3padb2wnb2i7cl/qcaux
QCPROG:      /cm/shared/apps/spack/cpu/opt/spack/linux-centos8-zen2/gcc-10.2.0/qchem-5.4-akfmr7b3t57bfs6qan3padb2wnb2i7cl/exe/qcprog.exe_s
QCPROG_S:    /cm/shared/apps/spack/cpu/opt/spack/linux-centos8-zen2/gcc-10.2.0/qchem-5.4-akfmr7b3t57bfs6qan3padb2wnb2i7cl/exe/qcprog.exe_s
PARALLEL:    -DSERIAL
QCMPI:       mpich
#
# qchem directory setting
#
qcrun:       qchem774397
QCSCRATCH:   .
QCLOCALSCR:  
QCTMPDIR:    .
QCFILEPREF:  ./qchem774397
QCSAVEDIR:   
workdirs:    ./qchem774397
workdir0:    ./qchem774397
partmpdirs =  
#
# parallel setting
#
QCRSH:           ssh
QCMPI:           mpich
QCMPIRUN:        /cm/shared/apps/spack/cpu/opt/spack/linux-centos8-zen2/gcc-10.2.0/qchem-5.4-akfmr7b3t57bfs6qan3padb2wnb2i7cl/bin/mpi/mpirun_qchem
QCMACHINEFILE:   ./qchem774397/hostfile

#
# env setting
#
exported envs:   QC QCAUX QCSCRATCH QCRUNNAME QCFILEPREF QCPROG QCPROG_S GUIFILE

Running Job 1 of 1 Methylthiophene_Phi_20_Theta_350_Methylthiophene_Hydrogenated_Improper_Alternate.qcin
qchem Methylthiophene_Phi_20_Theta_350_Methylthiophene_Hydrogenated_Improper_Alternate.qcin_774397.0 ./qchem774397/ 0
/cm/shared/apps/spack/cpu/opt/spack/linux-centos8-zen2/gcc-10.2.0/qchem-5.4-akfmr7b3t57bfs6qan3padb2wnb2i7cl/exe/qcprog.exe_s Methylthiophene_Phi_20_Theta_350_Methylthiophene_Hydrogenated_Improper_Alternate.qcin_774397.0 ./qchem774397/
                  Welcome to Q-Chem
     A Quantum Leap Into The Future Of Chemistry


 Q-Chem 5.4, Q-Chem, Inc., Pleasanton, CA (2021)

 License issued to: University of California, San Diego (site)

 E. Epifanovsky,  A. T. B. Gilbert,  Xintian Feng,  Joonho Lee,  Yuezhi Mao,  
 N. Mardirossian,  P. Pokhilko,  A. White,  M. Wormit,  M. P. Coons,  
 A. L. Dempwolff,  Zhengting Gan,  D. Hait,  P. R. Horn,  L. D. Jacobson,  
 I. Kaliman,  J. Kussmann,  A. W. Lange,  Ka Un Lao,  D. S. Levine,  Jie Liu,  
 S. C. McKenzie,  A. F. Morrison,  K. Nanda,  F. Plasser,  D. R. Rehn,  
 M. L. Vidal,  Zhi-Qiang You,  Ying Zhu,  B. Alam,  B. Albrecht,  
 A. Aldossary,  E. Alguire,  J. H. Andersen,  D. Barton,  K. Begam,  A. Behn,  
 Y. A. Bernard,  E. J. Berquist,  H. Burton,  A. Carreras,  K. Carter-Fenk,  
 R. Chakraborty,  A. D. Chien,  K. D. Closser,  V. Cofer-Shabica,  
 S. Dasgupta,  Jia Deng,  M. de Wergifosse,  M. Diedenhofen,  Hainam Do,  
 S. Ehlert,  Po-Tung Fang,  S. Fatehi,  Qingguo Feng,  J. Gayvert,  
 Qinghui Ge,  G. Gidofalvi,  M. Goldey,  J. Gomes,  C. Gonzalez-Espinoza,  
 S. Gulania,  A. Gunina,  M. W. D. Hanson-Heine,  P. H. P. Harbach,  
 A. W. Hauser,  M. F. Herbst,  M. Hernandez Vera,  M. Hodecker,  
 Z. C. Holden,  S. Houck,  Xunkun Huang,  Kerwin Hui,  B. C. Huynh,  
 M. Ivanov,  Hyunjun Ji,  Hanjie Jiang,  B. Kaduk,  S. Kaehler,  
 K. Khistyaev,  Jaehoon Kim,  P. Klunzinger,  Z. Koczor-Benda,  
 Joong Hoon Koh,  D. Kosenkov,  L. Koulias,  T. Kowalczyk,  C. M. Krauter,  
 K. Kue,  A. Kunitsa,  T. Kus,  A. Landau,  K. V. Lawler,  D. Lefrancois,  
 S. Lehtola,  Rain Li,  Yi-Pei Li,  Jiashu Liang,  M. Liebenthal,  
 Hung-Hsuan Lin,  You-Sheng Lin,  Fenglai Liu,  Kuan-Yu Liu,  
 M. Loipersberger,  A. Luenser,  A. Manjanath,  P. Manohar,  E. Mansoor,  
 S. F. Manzer,  Shan-Ping Mao,  A. V. Marenich,  T. Markovich,  S. Mason,  
 S. A. Maurer,  P. F. McLaughlin,  M. F. S. J. Menger,  J.-M. Mewes,  
 S. A. Mewes,  P. Morgante,  J. W. Mullinax,  T. S. Nguyen-Beck,  
 K. J. Oosterbaan,  G. Paran,  Alexander C. Paul,  Suranjan K. Paul,  
 F. Pavosevic,  Zheng Pei,  S. Prager,  E. I. Proynov,  E. Ramos,  B. Rana,  
 A. E. Rask,  A. Rettig,  R. M. Richard,  F. Rob,  E. Rossomme,  T. Scheele,  
 M. Scheurer,  M. Schneider,  N. Sergueev,  S. M. Sharada,  W. Skomorowski,  
 D. W. Small,  C. J. Stein,  Yu-Chuan Su,  E. J. Sundstrom,  Zhen Tao,  
 J. Thirman,  T. Tsuchimochi,  N. M. Tubman,  S. P. Veccham,  O. Vydrov,  
 J. Wenzel,  J. Witte,  A. Yamada,  Kun Yao,  S. Yeganeh,  S. R. Yost,  
 A. Zech,  Igor Ying Zhang,  Xing Zhang,  Yu Zhang,  D. Zuev,  
 A. Aspuru-Guzik,  A. T. Bell,  N. A. Besley,  K. B. Bravaya,  B. R. Brooks,  
 D. Casanova,  Jeng-Da Chai,  S. Coriani,  C. J. Cramer,  
 A. E. DePrince, III,  R. A. DiStasio Jr.,  A. Dreuw,  B. D. Dunietz,  
 T. R. Furlani,  W. A. Goddard III,  S. Grimme,  S. Hammes-Schiffer,  
 T. Head-Gordon,  W. J. Hehre,  Chao-Ping Hsu,  T.-C. Jagau,  Yousung Jung,  
 A. Klamt,  Jing Kong,  D. S. Lambrecht,  WanZhen Liang,  N. J. Mayhall,  
 C. W. McCurdy,  J. B. Neaton,  C. Ochsenfeld,  J. A. Parkhill,  R. Peverati,  
 V. A. Rassolov,  Yihan Shao,  L. V. Slipchenko,  T. Stauch,  R. P. Steele,  
 J. E. Subotnik,  A. J. W. Thom,  A. Tkatchenko,  D. G. Truhlar,  
 T. Van Voorhis,  T. A. Wesolowski,  K. B. Whaley,  H. L. Woodcock III,  
 P. M. Zimmerman,  S. Faraji,  P. M. W. Gill,  M. Head-Gordon,  
 J. M. Herbert,  A. I. Krylov

 Contributors to earlier versions of Q-Chem not listed above: 
 R. D. Adamson,  B. Austin,  R. Baer,  J. Baker,  G. J. O. Beran,  
 K. Brandhorst,  S. T. Brown,  E. F. C. Byrd,  A. K. Chakraborty,  
 G. K. L. Chan,  Chun-Min Chang,  Yunqing Chen,  C.-L. Cheng,  
 Siu Hung Chien,  D. M. Chipman,  D. L. Crittenden,  H. Dachsel,  
 R. J. Doerksen,  A. D. Dutoi,  R. G. Edgar,  J. Fosso-Tande,  
 L. Fusti-Molnar,  D. Ghosh,  A. Ghysels,  A. Golubeva-Zadorozhnaya,  
 J. Gonthier,  M. S. Gordon,  S. R. Gwaltney,  G. Hawkins,  J. E. Herr,  
 A. Heyden,  S. Hirata,  E. G. Hohenstein,  G. Kedziora,  F. J. Keil,  
 C. Kelley,  Jihan Kim,  R. A. King,  R. Z. Khaliullin,  P. P. Korambath,  
 W. Kurlancheek,  A. Laurent,  A. M. Lee,  M. S. Lee,  S. V. Levchenko,  
 Ching Yeh Lin,  D. Liotard,  E. Livshits,  R. C. Lochan,  I. Lotan,  
 L. A. Martinez-Martinez,  P. E. Maslen,  N. Nair,  D. P. O'Neill,  
 D. Neuhauser,  E. Neuscamman,  C. M. Oana,  R. Olivares-Amaya,  R. Olson,  
 T. M. Perrine,  B. Peters,  P. A. Pieniazek,  A. Prociuk,  Y. M. Rhee,  
 J. Ritchie,  M. A. Rohrdanz,  E. Rosta,  N. J. Russ,  H. F. Schaefer III,  
 M. W. Schmidt,  N. E. Schultz,  S. Sharma,  N. Shenvi,  C. D. Sherrill,  
 A. C. Simmonett,  A. Sodt,  T. Stein,  D. Stuck,  K. S. Thanthiriwatte,  
 V. Vanovschi,  L. Vogt,  Tao Wang,  A. Warshel,  M. A. Watson,  
 C. F. Williams,  Q. Wu,  X. Xu,  Jun Yang,  W. Zhang,  Yan Zhao

 Please cite Q-Chem as follows:
 Y. Shao et al., Mol. Phys. 113, 184-215 (2015)
 DOI: 10.1080/00268976.2014.952696

 Q-Chem 5.4.0 for Intel X86 EM64T Linux

 Parts of Q-Chem use Armadillo 9.800.1 (Horizon Scraper).
 http://arma.sourceforge.net/

 Q-Chem begins on Sun Jul 10 11:29:04 2022  

 Host: 
0

     Scratch files written to ./qchem774397//
 May1621 |scratch|qcdevops|jenkins|workspace|build_RNUM    
 Processing $rem in /cm/shared/apps/spack/cpu/opt/spack/linux-centos8-zen2/gcc-10.2.0/qchem-5.4-akfmr7b3t57bfs6qan3padb2wnb2i7cl/config/preferences:
 Processing $rem in /home/theleonzhang/.qchemrc:
 Symmetry turned off for PCM/SM12/SMD calculation
 Core orbitals will be frozen

 Checking the input file for inconsistencies... 	...done.

--------------------------------------------------------------
User input:
--------------------------------------------------------------
$molecule
0 1
C	-0.236890	-0.535395	0.015308
C	0.058510	0.276105	1.114708
C	0.531810	1.576505	0.792008
H	-0.067590	-0.070395	2.151408
C	0.607310	1.783905	-0.597192
S	0.085410	0.350205	-1.471492
C	0.903910	2.598705	1.829908
H	0.758310	2.198705	2.852008
H	0.289110	3.518705	1.741508
H	1.966310	2.908305	1.741508
C	-0.236890	-1.976095	0.015308
H	0.826710	-1.976295	-0.172092
H	-0.379090	-2.679895	-0.791492
H	-0.072390	-2.494995	0.948008
H	0.932010	2.675905	-1.146292
$end

$rem
JOBTYPE		SP
EXCHANGE	HF
CORRELATION	pRIMP2
BASIS		cc-pvtz
METHOD		rimp2
AUX_BASIS	rimp2-cc-pvtz
SOLVENT_METHOD	PCM
PURECART	11111
SYMMETRY	false
MEM_TOTAL	110000
SCF_CONVERGENCE = 6
THRESH=10
$end



$solvent
dielectric 4.90
$end
--------------------------------------------------------------
 ----------------------------------------------------------------
             Standard Nuclear Orientation (Angstroms)
    I     Atom           X                Y                Z
 ----------------------------------------------------------------
    1      C      -0.2368900000    -0.5353950000     0.0153080000
    2      C       0.0585100000     0.2761050000     1.1147080000
    3      C       0.5318100000     1.5765050000     0.7920080000
    4      H      -0.0675900000    -0.0703950000     2.1514080000
    5      C       0.6073100000     1.7839050000    -0.5971920000
    6      S       0.0854100000     0.3502050000    -1.4714920000
    7      C       0.9039100000     2.5987050000     1.8299080000
    8      H       0.7583100000     2.1987050000     2.8520080000
    9      H       0.2891100000     3.5187050000     1.7415080000
   10      H       1.9663100000     2.9083050000     1.7415080000
   11      C      -0.2368900000    -1.9760950000     0.0153080000
   12      H       0.8267100000    -1.9762950000    -0.1720920000
   13      H      -0.3790900000    -2.6798950000    -0.7914920000
   14      H      -0.0723900000    -2.4949950000     0.9480080000
   15      H       0.9320100000     2.6759050000    -1.1462920000
 ----------------------------------------------------------------
 Nuclear Repulsion Energy =         345.42928757 hartrees
 There are       30 alpha and       30 beta electrons

 Q-Chem warning in module forms1/BasisType.C, line 2236:

 You are not using the predefined 5D/6D in this basis set.

 Requested basis set is cc-pVTZ
 There are 120 shells and 326 basis functions

 Total QAlloc Memory Limit 110000 MB
 Mega-Array Size       188 MB
 MEM_STATIC part       192 MB
 Discretize the solute cavity surface with Lebedev spheres
	Using 110 Lebedev grid points for each H atom
	Using 194 Lebedev grid points for other atoms
	Atomic van der Waals radii will be scaled by 1.20
 Remove points where switching function is < 1.0e-08
 Keep 1066 surface tesserae and discard 1172 interior tesserae
 Molecular Surface Area = 158.257 Angst**2

                       Distance Matrix (Angstroms)
             C (  1)   C (  2)   C (  3)   H (  4)   C (  5)   S (  6)
   C (  2)  1.398025
   C (  3)  2.377874  1.420981
   H (  4)  2.192672  1.100323  2.218001
   C (  5)  2.543026  2.346326  1.406624  3.383596
   S (  6)  1.760324  2.587401  2.612760  3.650441  1.758487
   C (  7)  3.796944  2.573069  1.503525  2.858543  2.577341  4.077369
   H (  8)  4.063569  2.684087  2.163801  2.514312  3.477332  4.749989
   H (  9)  4.437586  3.310666  2.175453  3.629999  2.929215  4.517107
   H ( 10)  4.437671  3.310749  2.175553  3.630072  2.929279  4.517193
   C ( 11)  1.440700  2.523558  3.716871  2.867626  3.901978  2.779590
   H ( 12)  1.800710  2.705419  3.693080  3.135423  3.790508  2.765966
   H ( 13)  2.295654  3.544436  4.631863  3.945527  4.575614  3.140011
   H ( 14)  2.176470  2.779194  4.119042  2.706821  4.599850  3.738187
   H ( 15)  3.609444  3.410889  2.264033  4.406381  1.096633  2.496271
             C (  7)   H (  8)   H (  9)   H ( 10)   C ( 11)   H ( 12)
   H (  8)  1.107198
   H (  9)  1.110042  1.787669
   H ( 10)  1.110117  1.787738  1.784822
   C ( 11)  5.052029  5.144535  5.783534  5.629496
   H ( 12)  4.994456  5.155626  5.843450  5.368414  1.079983
   H ( 13)  6.031703  6.194313  6.729430  6.568483  1.080038  1.527306
   H ( 14)  5.260864  5.132845  6.076587  5.829373  1.079929  1.527107
   H ( 15)  2.977334  4.030421  3.076202  3.076227  4.935255  4.754274
             H ( 13)   H ( 14)
   H ( 14)  1.775982
   H ( 15)  5.525347  5.668608
 
 Requested basis set is rimp2-cc-pVTZ
 There are 250 shells and 848 basis functions
 A cutoff of  1.0D-10 yielded   6197 shell pairs
 There are     45431 function pairs (     58439 Cartesian)
 Smallest overlap matrix eigenvalue = 1.03E-04

 Scale SEOQF with 1.000000e-01/1.000000e-01/1.000000e-01

 Standard Electronic Orientation quadrupole field applied
 Nucleus-field energy     =     0.0000000018 hartrees
 Guess from superposition of atomic densities
 Warning:  Energy on first SCF cycle will be non-variational
 SAD guess density has 60.000000 electrons

 -----------------------------------------------------------------------
  General SCF calculation program by
  Eric Jon Sundstrom, Paul Horn, Yuezhi Mao, Dmitri Zuev, Alec White,
  David Stuck, Shaama M.S., Shane Yost, Joonho Lee, David Small,
  Daniel Levine, Susi Lehtola, Hugh Burton, Evgeny Epifanovsky,
  Bang C. Huynh
 -----------------------------------------------------------------------
 Hartree-Fock
 A restricted SCF calculation will be
 performed using DIIS
 SCF converges when DIIS error is below 1.0e-06
 ---------------------------------------
  Cycle       Energy         DIIS error
 ---------------------------------------
    1    -632.1103638116      2.92e-02  
    2    -629.3390280000      1.95e-03  
    3    -629.4094284874      7.01e-04  
    4    -629.4171055015      3.63e-04  
    5    -629.4193871475      6.24e-05  
    6    -629.4195216419      2.61e-05  
    7    -629.4195546622      1.13e-05  
    8    -629.4195639584      5.21e-06  
    9    -629.4195654919      1.72e-06  
   10    -629.4195656909      7.03e-07  Convergence criterion met
 ---------------------------------------
 SCF time:   CPU 144.21s  wall 144.00s 

************** Final PCM Free Energy Summary **************
 G_electrostatic  =      -0.00565159 hartree =      -3.54642393 kcal/mol
 G_cavitation     =       0.00000000 hartree =       0.00000000 kcal/mol
 G_dispersion     =       0.00000000 hartree =       0.00000000 kcal/mol
 G_repulsion      =       0.00000000 hartree =       0.00000000 kcal/mol
 --------------------------------------------------
 Non-electrostatic Free Energy =       0.00000000 hartree =       0.00000000 kcal/mol
 Total                         =      -0.00565159 hartree =      -3.54642393 kcal/mol
 --------------------------------------------------
 SCF Energy (H0 + V/2)                       =    -629.41956569 
 Solute Internal Energy (H0)                 =    -629.41391410 
 Total Free Energy (H0 + V/2 + non-elec)     =    -629.41956569 hartree
                                             = -394966.73870373 kcal/mol
***********************************************************

 SCF   energy in the final basis set =     -629.4195656909
 Total energy in the final basis set =     -629.4195656909


 --------------------------------------------------------------
  Generalized many-body perturbation theory program
  by Joonho Lee, Fazle Rob, Xintian Feng, Evgeny Epifanovsky

 No regularization used 
 (reg. param. = 0.0000e+00)
  (P|Q)^-1/2 Time:  CPU 0.48 s  wall 0.48 s

 In RI-MP2 calculation: 
 # of frozen core orbitals: 11

 Components of the RIMP2 correlation energy:
        aaaa    correlation energy =        -0.1452751583 a.u.
        abab    correlation energy =        -0.8858702142 a.u.
        bbbb    correlation energy =        -0.1452751583 a.u.
        non-Brillouin singles      =        -0.0000000000 a.u.
        total same-spin energy     =        -0.2905503166 a.u.
        total opposite-spin energy =        -0.8858702142 a.u.

 Total  RIMP2   correlation energy =        -1.1764205308 a.u.
        RIMP2         total energy =      -630.5959862217 a.u.

 RI-MP2 Energy Time:  CPU 11.06 s  wall 11.08 s
 
 --------------------------------------------------------------
 
                    Orbital Energies (a.u.)
 --------------------------------------------------------------
 
 Alpha MOs
 -- Occupied --
-91.9767 -11.2846 -11.2510 -11.2474 -11.2267 -11.2249 -11.2225  -8.9768
 -6.6578  -6.6572  -6.6566  -1.1623  -1.0568  -0.9968  -0.9417  -0.8821
 -0.7449  -0.7194  -0.6472  -0.5893  -0.5787  -0.5679  -0.5513  -0.5467
 -0.5071  -0.4943  -0.4649  -0.4557  -0.3393  -0.2886
 -- Virtual --
  0.1057   0.1452   0.1511   0.1753   0.1874   0.1962   0.2118   0.2176
  0.2202   0.2457   0.2482   0.2582   0.2967   0.3308   0.3437   0.3501
  0.3836   0.3931   0.4034   0.4226   0.4341   0.4608   0.4669   0.4816
  0.4974   0.5000   0.5232   0.5326   0.5381   0.5534   0.5659   0.5917
  0.5938   0.6053   0.6116   0.6240   0.6317   0.6405   0.6456   0.6482
  0.6525   0.6732   0.6863   0.6905   0.7240   0.7533   0.7677   0.7982
  0.8033   0.8259   0.8407   0.8488   0.8624   0.8792   0.8955   0.9329
  0.9508   0.9688   1.0039   1.0223   1.0312   1.0527   1.0702   1.0769
  1.0790   1.1065   1.1091   1.1243   1.1568   1.1658   1.1789   1.2043
  1.2378   1.2452   1.2491   1.2631   1.2728   1.3034   1.3063   1.3322
  1.3630   1.3892   1.3975   1.4149   1.4323   1.4396   1.4495   1.4730
  1.4832   1.5017   1.5157   1.5238   1.5377   1.5487   1.5551   1.5819
  1.5907   1.6279   1.6423   1.6721   1.6891   1.6996   1.7227   1.7539
  1.7661   1.7841   1.8025   1.8282   1.9036   1.9239   1.9404   1.9754
  2.0173   2.0391   2.1074   2.1220   2.1803   2.1883   2.2279   2.2575
  2.2775   2.2957   2.3479   2.4153   2.4342   2.4809   2.4856   2.5460
  2.5634   2.5822   2.6227   2.6498   2.6728   2.6923   2.7092   2.7423
  2.7534   2.7717   2.7782   2.7982   2.8282   2.8491   2.8658   2.8848
  2.8980   2.9367   2.9649   2.9964   3.0032   3.0386   3.0499   3.0851
  3.0979   3.1079   3.1145   3.1317   3.1548   3.1601   3.1720   3.1924
  3.1966   3.2439   3.2651   3.2833   3.2846   3.2947   3.3109   3.3254
  3.3354   3.3496   3.3845   3.3856   3.4063   3.4227   3.4255   3.4460
  3.4532   3.4786   3.4879   3.4952   3.5171   3.5208   3.5329   3.5616
  3.5754   3.5903   3.6099   3.6201   3.6290   3.6344   3.6539   3.6819
  3.6893   3.7104   3.7179   3.7364   3.7501   3.7674   3.7924   3.8050
  3.8234   3.8319   3.8654   3.8839   3.8956   3.9040   3.9316   3.9606
  3.9894   3.9995   4.0111   4.0321   4.0447   4.0778   4.0945   4.1062
  4.1163   4.1501   4.1693   4.2042   4.2234   4.2256   4.2473   4.2738
  4.2972   4.3000   4.3197   4.3368   4.3454   4.3836   4.4031   4.4064
  4.4106   4.4240   4.4542   4.4599   4.4902   4.5105   4.5429   4.5777
  4.5943   4.5998   4.6444   4.6857   4.7142   4.7370   4.7588   4.7642
  4.8074   4.8236   4.8717   4.8926   4.9003   4.9210   5.0987   5.1031
  5.1075   5.1396   5.1455   5.1941   5.2180   5.2614   5.2841   5.3363
  5.3708   5.4049   5.4193   5.4377   5.4639   5.5141   5.5482   5.5685
  5.5927   5.6027   5.6210   5.6644   5.6977   5.8112   5.8191   5.8613
  5.9452   5.9608   6.0686   6.1873   6.2286   6.2534   6.3113   6.3895
  6.4307   6.5436   9.1874  11.3775  12.9024  13.7357  14.1820  14.5694
 --------------------------------------------------------------
 
          Ground-State Mulliken Net Atomic Charges

     Atom                 Charge (a.u.)
  ----------------------------------------
      1 C                     0.064270
      2 C                    -0.326724
      3 C                     0.062481
      4 H                     0.176689
      5 C                    -0.278861
      6 S                    -0.003529
      7 C                    -0.271447
      8 H                     0.101452
      9 H                     0.107587
     10 H                     0.107147
     11 C                    -0.373588
     12 H                     0.147641
     13 H                     0.157115
     14 H                     0.137366
     15 H                     0.192399
  ----------------------------------------
  Sum of atomic charges =     0.000000

 -----------------------------------------------------------------
                    Cartesian Multipole Moments
 -----------------------------------------------------------------
    Charge (ESU x 10^10)
                -0.0000
    Dipole Moment (Debye)
         X       1.1117      Y      -0.6965      Z       1.3334
       Tot       1.8706
    Quadrupole Moments (Debye-Ang)
        XX     -53.7467     XY       1.4771     YY     -42.8452
        XZ       0.2590     YZ       0.6654     ZZ     -48.6131
    Octopole Moments (Debye-Ang^2)
       XXX     -37.5889    XXY     -26.1468    XYY      -3.9370
       YYY     -78.5488    XXZ      -2.2888    XYZ      -1.3369
       YYZ      -5.1220    XZZ     -10.7400    YZZ     -24.2816
       ZZZ       1.2048
    Hexadecapole Moments (Debye-Ang^3)
      XXXX    -143.4251   XXXY    -101.0183   XXYY    -157.7772
      XYYY     -91.1143   YYYY    -747.8374   XXXZ     -31.5730
      XXYZ     -29.5810   XYYZ     -12.6504   YYYZ     -92.1816
      XXZZ    -110.8865   XYZZ     -26.9743   YYZZ    -200.1950
      XZZZ     -34.8747   YZZZ     -95.5232   ZZZZ    -484.3371
 -----------------------------------------------------------------
 Total job time:  157.09s(wall), 155.62s(cpu) 
 Sun Jul 10 11:31:41 2022

        *************************************************************
        *                                                           *
        *  Thank you very much for using Q-Chem.  Have a nice day.  *
        *                                                           *
        *************************************************************


remove work dirs ./qchem774397.0 -- ./qchem774397.-1
rm -rf ./qchem774397
