You are running Q-Chem version: 5.4.0

#
# job setting
#
local host:  exp-4-11
current dir: /expanse/lustre/scratch/theleonzhang/temp_project/Hydrogenated_Impropers_Test
input file:  Methylthiophene_Phi_15_Theta_50_Methylthiophene_Hydrogenated_Improper.qcin
output file: 
nprocs     : 0
nthreads   : 1
#
# qchem installation setting
#
QC:          /cm/shared/apps/spack/cpu/opt/spack/linux-centos8-zen2/gcc-10.2.0/qchem-5.4-akfmr7b3t57bfs6qan3padb2wnb2i7cl
QCAUX:       /cm/shared/apps/spack/cpu/opt/spack/linux-centos8-zen2/gcc-10.2.0/qchem-5.4-akfmr7b3t57bfs6qan3padb2wnb2i7cl/qcaux
QCPROG:      /cm/shared/apps/spack/cpu/opt/spack/linux-centos8-zen2/gcc-10.2.0/qchem-5.4-akfmr7b3t57bfs6qan3padb2wnb2i7cl/exe/qcprog.exe_s
QCPROG_S:    /cm/shared/apps/spack/cpu/opt/spack/linux-centos8-zen2/gcc-10.2.0/qchem-5.4-akfmr7b3t57bfs6qan3padb2wnb2i7cl/exe/qcprog.exe_s
PARALLEL:    -DSERIAL
QCMPI:       mpich
#
# qchem directory setting
#
qcrun:       qchem3418156
QCSCRATCH:   .
QCLOCALSCR:  
QCTMPDIR:    .
QCFILEPREF:  ./qchem3418156
QCSAVEDIR:   
workdirs:    ./qchem3418156
workdir0:    ./qchem3418156
partmpdirs =  
#
# parallel setting
#
QCRSH:           ssh
QCMPI:           mpich
QCMPIRUN:        /cm/shared/apps/spack/cpu/opt/spack/linux-centos8-zen2/gcc-10.2.0/qchem-5.4-akfmr7b3t57bfs6qan3padb2wnb2i7cl/bin/mpi/mpirun_qchem
QCMACHINEFILE:   ./qchem3418156/hostfile

#
# env setting
#
exported envs:   QC QCAUX QCSCRATCH QCRUNNAME QCFILEPREF QCPROG QCPROG_S GUIFILE

Running Job 1 of 1 Methylthiophene_Phi_15_Theta_50_Methylthiophene_Hydrogenated_Improper.qcin
qchem Methylthiophene_Phi_15_Theta_50_Methylthiophene_Hydrogenated_Improper.qcin_3418156.0 ./qchem3418156/ 0
/cm/shared/apps/spack/cpu/opt/spack/linux-centos8-zen2/gcc-10.2.0/qchem-5.4-akfmr7b3t57bfs6qan3padb2wnb2i7cl/exe/qcprog.exe_s Methylthiophene_Phi_15_Theta_50_Methylthiophene_Hydrogenated_Improper.qcin_3418156.0 ./qchem3418156/
                  Welcome to Q-Chem
     A Quantum Leap Into The Future Of Chemistry


 Q-Chem 5.4, Q-Chem, Inc., Pleasanton, CA (2021)

 License issued to: University of California, San Diego (site)

 E. Epifanovsky,  A. T. B. Gilbert,  Xintian Feng,  Joonho Lee,  Yuezhi Mao,  
 N. Mardirossian,  P. Pokhilko,  A. White,  M. Wormit,  M. P. Coons,  
 A. L. Dempwolff,  Zhengting Gan,  D. Hait,  P. R. Horn,  L. D. Jacobson,  
 I. Kaliman,  J. Kussmann,  A. W. Lange,  Ka Un Lao,  D. S. Levine,  Jie Liu,  
 S. C. McKenzie,  A. F. Morrison,  K. Nanda,  F. Plasser,  D. R. Rehn,  
 M. L. Vidal,  Zhi-Qiang You,  Ying Zhu,  B. Alam,  B. Albrecht,  
 A. Aldossary,  E. Alguire,  J. H. Andersen,  D. Barton,  K. Begam,  A. Behn,  
 Y. A. Bernard,  E. J. Berquist,  H. Burton,  A. Carreras,  K. Carter-Fenk,  
 R. Chakraborty,  A. D. Chien,  K. D. Closser,  V. Cofer-Shabica,  
 S. Dasgupta,  Jia Deng,  M. de Wergifosse,  M. Diedenhofen,  Hainam Do,  
 S. Ehlert,  Po-Tung Fang,  S. Fatehi,  Qingguo Feng,  J. Gayvert,  
 Qinghui Ge,  G. Gidofalvi,  M. Goldey,  J. Gomes,  C. Gonzalez-Espinoza,  
 S. Gulania,  A. Gunina,  M. W. D. Hanson-Heine,  P. H. P. Harbach,  
 A. W. Hauser,  M. F. Herbst,  M. Hernandez Vera,  M. Hodecker,  
 Z. C. Holden,  S. Houck,  Xunkun Huang,  Kerwin Hui,  B. C. Huynh,  
 M. Ivanov,  Hyunjun Ji,  Hanjie Jiang,  B. Kaduk,  S. Kaehler,  
 K. Khistyaev,  Jaehoon Kim,  P. Klunzinger,  Z. Koczor-Benda,  
 Joong Hoon Koh,  D. Kosenkov,  L. Koulias,  T. Kowalczyk,  C. M. Krauter,  
 K. Kue,  A. Kunitsa,  T. Kus,  A. Landau,  K. V. Lawler,  D. Lefrancois,  
 S. Lehtola,  Rain Li,  Yi-Pei Li,  Jiashu Liang,  M. Liebenthal,  
 Hung-Hsuan Lin,  You-Sheng Lin,  Fenglai Liu,  Kuan-Yu Liu,  
 M. Loipersberger,  A. Luenser,  A. Manjanath,  P. Manohar,  E. Mansoor,  
 S. F. Manzer,  Shan-Ping Mao,  A. V. Marenich,  T. Markovich,  S. Mason,  
 S. A. Maurer,  P. F. McLaughlin,  M. F. S. J. Menger,  J.-M. Mewes,  
 S. A. Mewes,  P. Morgante,  J. W. Mullinax,  T. S. Nguyen-Beck,  
 K. J. Oosterbaan,  G. Paran,  Alexander C. Paul,  Suranjan K. Paul,  
 F. Pavosevic,  Zheng Pei,  S. Prager,  E. I. Proynov,  E. Ramos,  B. Rana,  
 A. E. Rask,  A. Rettig,  R. M. Richard,  F. Rob,  E. Rossomme,  T. Scheele,  
 M. Scheurer,  M. Schneider,  N. Sergueev,  S. M. Sharada,  W. Skomorowski,  
 D. W. Small,  C. J. Stein,  Yu-Chuan Su,  E. J. Sundstrom,  Zhen Tao,  
 J. Thirman,  T. Tsuchimochi,  N. M. Tubman,  S. P. Veccham,  O. Vydrov,  
 J. Wenzel,  J. Witte,  A. Yamada,  Kun Yao,  S. Yeganeh,  S. R. Yost,  
 A. Zech,  Igor Ying Zhang,  Xing Zhang,  Yu Zhang,  D. Zuev,  
 A. Aspuru-Guzik,  A. T. Bell,  N. A. Besley,  K. B. Bravaya,  B. R. Brooks,  
 D. Casanova,  Jeng-Da Chai,  S. Coriani,  C. J. Cramer,  
 A. E. DePrince, III,  R. A. DiStasio Jr.,  A. Dreuw,  B. D. Dunietz,  
 T. R. Furlani,  W. A. Goddard III,  S. Grimme,  S. Hammes-Schiffer,  
 T. Head-Gordon,  W. J. Hehre,  Chao-Ping Hsu,  T.-C. Jagau,  Yousung Jung,  
 A. Klamt,  Jing Kong,  D. S. Lambrecht,  WanZhen Liang,  N. J. Mayhall,  
 C. W. McCurdy,  J. B. Neaton,  C. Ochsenfeld,  J. A. Parkhill,  R. Peverati,  
 V. A. Rassolov,  Yihan Shao,  L. V. Slipchenko,  T. Stauch,  R. P. Steele,  
 J. E. Subotnik,  A. J. W. Thom,  A. Tkatchenko,  D. G. Truhlar,  
 T. Van Voorhis,  T. A. Wesolowski,  K. B. Whaley,  H. L. Woodcock III,  
 P. M. Zimmerman,  S. Faraji,  P. M. W. Gill,  M. Head-Gordon,  
 J. M. Herbert,  A. I. Krylov

 Contributors to earlier versions of Q-Chem not listed above: 
 R. D. Adamson,  B. Austin,  R. Baer,  J. Baker,  G. J. O. Beran,  
 K. Brandhorst,  S. T. Brown,  E. F. C. Byrd,  A. K. Chakraborty,  
 G. K. L. Chan,  Chun-Min Chang,  Yunqing Chen,  C.-L. Cheng,  
 Siu Hung Chien,  D. M. Chipman,  D. L. Crittenden,  H. Dachsel,  
 R. J. Doerksen,  A. D. Dutoi,  R. G. Edgar,  J. Fosso-Tande,  
 L. Fusti-Molnar,  D. Ghosh,  A. Ghysels,  A. Golubeva-Zadorozhnaya,  
 J. Gonthier,  M. S. Gordon,  S. R. Gwaltney,  G. Hawkins,  J. E. Herr,  
 A. Heyden,  S. Hirata,  E. G. Hohenstein,  G. Kedziora,  F. J. Keil,  
 C. Kelley,  Jihan Kim,  R. A. King,  R. Z. Khaliullin,  P. P. Korambath,  
 W. Kurlancheek,  A. Laurent,  A. M. Lee,  M. S. Lee,  S. V. Levchenko,  
 Ching Yeh Lin,  D. Liotard,  E. Livshits,  R. C. Lochan,  I. Lotan,  
 L. A. Martinez-Martinez,  P. E. Maslen,  N. Nair,  D. P. O'Neill,  
 D. Neuhauser,  E. Neuscamman,  C. M. Oana,  R. Olivares-Amaya,  R. Olson,  
 T. M. Perrine,  B. Peters,  P. A. Pieniazek,  A. Prociuk,  Y. M. Rhee,  
 J. Ritchie,  M. A. Rohrdanz,  E. Rosta,  N. J. Russ,  H. F. Schaefer III,  
 M. W. Schmidt,  N. E. Schultz,  S. Sharma,  N. Shenvi,  C. D. Sherrill,  
 A. C. Simmonett,  A. Sodt,  T. Stein,  D. Stuck,  K. S. Thanthiriwatte,  
 V. Vanovschi,  L. Vogt,  Tao Wang,  A. Warshel,  M. A. Watson,  
 C. F. Williams,  Q. Wu,  X. Xu,  Jun Yang,  W. Zhang,  Yan Zhao

 Please cite Q-Chem as follows:
 Y. Shao et al., Mol. Phys. 113, 184-215 (2015)
 DOI: 10.1080/00268976.2014.952696

 Q-Chem 5.4.0 for Intel X86 EM64T Linux

 Parts of Q-Chem use Armadillo 9.800.1 (Horizon Scraper).
 http://arma.sourceforge.net/

 Q-Chem begins on Sun Jul 10 09:06:46 2022  

 Host: 
0

     Scratch files written to ./qchem3418156//
 May1621 |scratch|qcdevops|jenkins|workspace|build_RNUM    
 Processing $rem in /cm/shared/apps/spack/cpu/opt/spack/linux-centos8-zen2/gcc-10.2.0/qchem-5.4-akfmr7b3t57bfs6qan3padb2wnb2i7cl/config/preferences:
 Processing $rem in /home/theleonzhang/.qchemrc:
 Symmetry turned off for PCM/SM12/SMD calculation
 Core orbitals will be frozen

 Checking the input file for inconsistencies... 	...done.

--------------------------------------------------------------
User input:
--------------------------------------------------------------
$molecule
0 1
C	-0.172016	-0.553191	0.018379
C	0.051484	0.281009	1.117779
C	0.409684	1.617709	0.795079
H	-0.043916	-0.075291	2.154479
C	0.466884	1.830809	-0.594121
S	0.071884	0.357109	-1.468421
C	0.691284	2.668409	1.832979
H	0.581084	2.257309	2.855079
H	-0.001316	3.531409	1.744579
H	1.722584	3.069409	1.744579
C	-0.172016	-1.993891	0.018379
H	-0.866116	-1.993591	-0.809021
H	0.455584	-2.697691	-0.508121
H	-0.897516	-2.512791	0.627179
H	0.712584	2.747709	-1.143221
$end

$rem
JOBTYPE		SP
EXCHANGE	HF
CORRELATION	pRIMP2
BASIS		cc-pvtz
METHOD		rimp2
AUX_BASIS	rimp2-cc-pvtz
SOLVENT_METHOD	PCM
PURECART	11111
SYMMETRY	false
MEM_TOTAL	110000
SCF_CONVERGENCE = 6
THRESH=10
$end



$solvent
dielectric 4.90
$end
--------------------------------------------------------------
 ----------------------------------------------------------------
             Standard Nuclear Orientation (Angstroms)
    I     Atom           X                Y                Z
 ----------------------------------------------------------------
    1      C      -0.1720160000    -0.5531910000     0.0183790000
    2      C       0.0514840000     0.2810090000     1.1177790000
    3      C       0.4096840000     1.6177090000     0.7950790000
    4      H      -0.0439160000    -0.0752910000     2.1544790000
    5      C       0.4668840000     1.8308090000    -0.5941210000
    6      S       0.0718840000     0.3571090000    -1.4684210000
    7      C       0.6912840000     2.6684090000     1.8329790000
    8      H       0.5810840000     2.2573090000     2.8550790000
    9      H      -0.0013160000     3.5314090000     1.7445790000
   10      H       1.7225840000     3.0694090000     1.7445790000
   11      C      -0.1720160000    -1.9938910000     0.0183790000
   12      H      -0.8661160000    -1.9935910000    -0.8090210000
   13      H       0.4555840000    -2.6976910000    -0.5081210000
   14      H      -0.8975160000    -2.5127910000     0.6271790000
   15      H       0.7125840000     2.7477090000    -1.1432210000
 ----------------------------------------------------------------
 Nuclear Repulsion Energy =         344.80910436 hartrees
 There are       30 alpha and       30 beta electrons

 Q-Chem warning in module forms1/BasisType.C, line 2236:

 You are not using the predefined 5D/6D in this basis set.

 Requested basis set is cc-pVTZ
 There are 120 shells and 326 basis functions

 Total QAlloc Memory Limit 110000 MB
 Mega-Array Size       188 MB
 MEM_STATIC part       192 MB
 Discretize the solute cavity surface with Lebedev spheres
	Using 110 Lebedev grid points for each H atom
	Using 194 Lebedev grid points for other atoms
	Atomic van der Waals radii will be scaled by 1.20
 Remove points where switching function is < 1.0e-08
 Keep 1059 surface tesserae and discard 1179 interior tesserae
 Molecular Surface Area = 158.066 Angst**2

                       Distance Matrix (Angstroms)
             C (  1)   C (  2)   C (  3)   H (  4)   C (  5)   S (  6)
   C (  2)  1.398042
   C (  3)  2.377908  1.420989
   H (  4)  2.192652  1.100363  2.218101
   C (  5)  2.542991  2.346282  1.406613  3.383628
   S (  6)  1.760315  2.587400  2.612787  3.650450  1.758470
   C (  7)  3.796942  2.573040  1.503498  2.858631  2.577352  4.077377
   H (  8)  4.063611  2.684110  2.163808  2.514456  3.477344  4.750021
   H (  9)  4.437664  3.310705  2.175481  3.630168  2.929295  4.517179
   H ( 10)  4.437624  3.310684  2.175475  3.630107  2.929237  4.517162
   C ( 11)  1.440700  2.536494  3.739691  2.874084  3.925771  2.792358
   H ( 12)  1.800310  3.119031  4.152384  3.624668  4.055750  2.615424
   H ( 13)  2.295640  3.417529  4.508116  3.770401  4.529331  3.225090
   H ( 14)  2.176470  2.991088  4.335665  3.000447  4.713812  3.683423
   H ( 15)  3.609401  3.410833  2.263991  4.406410  1.096624  2.496241
             C (  7)   H (  8)   H (  9)   H ( 10)   C ( 11)   H ( 12)
   H (  8)  1.107175
   H (  9)  1.110080  1.787661
   H ( 10)  1.110043  1.787663  1.784734
   C ( 11)  5.076918  5.165920  5.791187  5.675058
   H ( 12)  5.580314  5.795702  6.147713  6.233475  1.079984
   H ( 13)  5.859295  5.989899  6.639661  6.319762  1.080009  1.527478
   H ( 14)  5.551853  5.468423  6.211611  6.266934  1.079928  1.527490
   H ( 15)  2.977332  4.030408  3.076236  3.076196  4.961311  5.008384
             H ( 13)   H ( 14)
   H ( 14)  1.775943
   H ( 15)  5.488331  5.779239
 
 Requested basis set is rimp2-cc-pVTZ
 There are 250 shells and 848 basis functions
 A cutoff of  1.0D-10 yielded   6164 shell pairs
 There are     45154 function pairs (     58057 Cartesian)
 Smallest overlap matrix eigenvalue = 9.79E-05

 Scale SEOQF with 1.000000e-01/1.000000e-01/1.000000e-01

 Standard Electronic Orientation quadrupole field applied
 Nucleus-field energy     =     0.0000000022 hartrees
 Guess from superposition of atomic densities
 Warning:  Energy on first SCF cycle will be non-variational
 SAD guess density has 60.000000 electrons

 -----------------------------------------------------------------------
  General SCF calculation program by
  Eric Jon Sundstrom, Paul Horn, Yuezhi Mao, Dmitri Zuev, Alec White,
  David Stuck, Shaama M.S., Shane Yost, Joonho Lee, David Small,
  Daniel Levine, Susi Lehtola, Hugh Burton, Evgeny Epifanovsky,
  Bang C. Huynh
 -----------------------------------------------------------------------
 Hartree-Fock
 A restricted SCF calculation will be
 performed using DIIS
 SCF converges when DIIS error is below 1.0e-06
 ---------------------------------------
  Cycle       Energy         DIIS error
 ---------------------------------------
    1    -632.1040147276      2.92e-02  
    2    -629.3365632215      1.94e-03  
    3    -629.4069147614      6.82e-04  
    4    -629.4144560082      3.44e-04  
    5    -629.4165679311      6.45e-05  
    6    -629.4167056348      2.63e-05  
    7    -629.4167403985      1.17e-05  
    8    -629.4167500176      5.07e-06  
    9    -629.4167515106      1.76e-06  
   10    -629.4167516926      5.52e-07  Convergence criterion met
 ---------------------------------------
 SCF time:   CPU 143.00s  wall 144.00s 

************** Final PCM Free Energy Summary **************
 G_electrostatic  =      -0.00522147 hartree =      -3.27652401 kcal/mol
 G_cavitation     =       0.00000000 hartree =       0.00000000 kcal/mol
 G_dispersion     =       0.00000000 hartree =       0.00000000 kcal/mol
 G_repulsion      =       0.00000000 hartree =       0.00000000 kcal/mol
 --------------------------------------------------
 Non-electrostatic Free Energy =       0.00000000 hartree =       0.00000000 kcal/mol
 Total                         =      -0.00522147 hartree =      -3.27652401 kcal/mol
 --------------------------------------------------
 SCF Energy (H0 + V/2)                       =    -629.41675169 
 Solute Internal Energy (H0)                 =    -629.41153022 
 Total Free Energy (H0 + V/2 + non-elec)     =    -629.41675169 hartree
                                             = -394964.97289316 kcal/mol
***********************************************************

 SCF   energy in the final basis set =     -629.4167516926
 Total energy in the final basis set =     -629.4167516926


 --------------------------------------------------------------
  Generalized many-body perturbation theory program
  by Joonho Lee, Fazle Rob, Xintian Feng, Evgeny Epifanovsky

 No regularization used 
 (reg. param. = 0.0000e+00)
  (P|Q)^-1/2 Time:  CPU 0.48 s  wall 0.48 s

 In RI-MP2 calculation: 
 # of frozen core orbitals: 11

 Components of the RIMP2 correlation energy:
        aaaa    correlation energy =        -0.1455809069 a.u.
        abab    correlation energy =        -0.8870095200 a.u.
        bbbb    correlation energy =        -0.1455809069 a.u.
        non-Brillouin singles      =        -0.0000000000 a.u.
        total same-spin energy     =        -0.2911618138 a.u.
        total opposite-spin energy =        -0.8870095200 a.u.

 Total  RIMP2   correlation energy =        -1.1781713337 a.u.
        RIMP2         total energy =      -630.5949230263 a.u.

 RI-MP2 Energy Time:  CPU 11.02 s  wall 11.04 s
 
 --------------------------------------------------------------
 
                    Orbital Energies (a.u.)
 --------------------------------------------------------------
 
 Alpha MOs
 -- Occupied --
-91.9791 -11.2761 -11.2569 -11.2472 -11.2289 -11.2268 -11.2167  -8.9790
 -6.6600  -6.6595  -6.6588  -1.1610  -1.0549  -0.9959  -0.9452  -0.8822
 -0.7469  -0.7190  -0.6470  -0.5903  -0.5753  -0.5692  -0.5511  -0.5470
 -0.5103  -0.4848  -0.4639  -0.4500  -0.3385  -0.2973
 -- Virtual --
  0.1022   0.1426   0.1494   0.1754   0.1874   0.1931   0.2026   0.2241
  0.2338   0.2431   0.2491   0.2643   0.2928   0.3177   0.3373   0.3503
  0.3817   0.3956   0.4027   0.4179   0.4368   0.4657   0.4722   0.4893
  0.4901   0.4984   0.5205   0.5343   0.5432   0.5612   0.5807   0.5887
  0.5978   0.6069   0.6119   0.6177   0.6306   0.6394   0.6480   0.6506
  0.6546   0.6683   0.6805   0.7131   0.7288   0.7408   0.7608   0.7808
  0.8035   0.8344   0.8429   0.8591   0.8736   0.8953   0.9078   0.9196
  0.9384   0.9636   0.9996   1.0091   1.0245   1.0561   1.0668   1.0706
  1.0817   1.0902   1.1054   1.1414   1.1652   1.1843   1.2018   1.2190
  1.2226   1.2327   1.2516   1.2557   1.2748   1.2914   1.3082   1.3340
  1.3478   1.3696   1.4020   1.4114   1.4251   1.4318   1.4569   1.4827
  1.4952   1.5135   1.5323   1.5373   1.5613   1.5647   1.5752   1.5779
  1.6178   1.6251   1.6513   1.6731   1.6867   1.6966   1.7118   1.7422
  1.7543   1.7828   1.8165   1.8338   1.8863   1.9042   1.9212   1.9716
  1.9957   2.0385   2.0941   2.1333   2.1785   2.1913   2.2166   2.2310
  2.2610   2.2882   2.3532   2.4193   2.4544   2.5023   2.5384   2.5550
  2.5677   2.6066   2.6278   2.6678   2.6864   2.6961   2.7030   2.7375
  2.7545   2.7587   2.7684   2.7932   2.8229   2.8365   2.8500   2.8655
  2.9122   2.9356   2.9709   2.9772   2.9990   3.0228   3.0429   3.0489
  3.0819   3.0973   3.1145   3.1416   3.1512   3.1614   3.1866   3.1936
  3.2102   3.2478   3.2703   3.2876   3.2923   3.3065   3.3097   3.3300
  3.3409   3.3593   3.3756   3.3867   3.3939   3.4228   3.4261   3.4372
  3.4495   3.4744   3.4863   3.4962   3.5184   3.5284   3.5428   3.5571
  3.5801   3.5911   3.5964   3.6193   3.6282   3.6325   3.6583   3.6917
  3.6976   3.7036   3.7223   3.7544   3.7585   3.7827   3.7971   3.8052
  3.8108   3.8371   3.8588   3.8912   3.9028   3.9089   3.9366   3.9497
  3.9687   3.9976   4.0078   4.0233   4.0381   4.0640   4.0842   4.1082
  4.1365   4.1544   4.1681   4.1744   4.2161   4.2194   4.2298   4.2523
  4.2833   4.2910   4.3185   4.3422   4.3516   4.3680   4.3709   4.3960
  4.4032   4.4296   4.4393   4.4618   4.4647   4.4914   4.5295   4.5447
  4.6058   4.6133   4.6427   4.6503   4.7180   4.7522   4.7607   4.7909
  4.7962   4.8147   4.8557   4.8997   4.9098   4.9785   5.0879   5.0947
  5.1221   5.1371   5.1764   5.1972   5.2519   5.2729   5.2875   5.3196
  5.3632   5.4034   5.4118   5.4302   5.4665   5.4991   5.5451   5.5631
  5.6012   5.6080   5.6234   5.6949   5.7275   5.8125   5.8267   5.8897
  5.9461   5.9696   6.0958   6.1346   6.2277   6.2495   6.3087   6.3983
  6.4314   6.4874   9.1831  11.4020  12.9425  13.9212  14.1879  14.4001
 --------------------------------------------------------------
 
          Ground-State Mulliken Net Atomic Charges

     Atom                 Charge (a.u.)
  ----------------------------------------
      1 C                     0.021796
      2 C                    -0.251354
      3 C                     0.031277
      4 H                     0.180789
      5 C                    -0.251865
      6 S                    -0.005220
      7 C                    -0.273218
      8 H                     0.101590
      9 H                     0.106916
     10 H                     0.106891
     11 C                    -0.363438
     12 H                     0.118239
     13 H                     0.147324
     14 H                     0.135975
     15 H                     0.194297
  ----------------------------------------
  Sum of atomic charges =     0.000000

 -----------------------------------------------------------------
                    Cartesian Multipole Moments
 -----------------------------------------------------------------
    Charge (ESU x 10^10)
                -0.0000
    Dipole Moment (Debye)
         X      -0.0475      Y      -0.1267      Z       1.0004
       Tot       1.0095
    Quadrupole Moments (Debye-Ang)
        XX     -53.3091     XY       3.0988     YY     -42.6821
        XZ      -0.2193     YZ       1.2700     ZZ     -48.6876
    Octopole Moments (Debye-Ang^2)
       XXX     -27.7021    XXY     -29.5200    XYY      -5.5239
       YYY     -77.3954    XXZ      -1.6741    XYZ       0.3236
       YYZ      -7.0370    XZZ      -7.6876    YZZ     -23.3147
       ZZZ       2.0125
    Hexadecapole Moments (Debye-Ang^3)
      XXXX    -118.9073   XXXY     -82.8392   XXYY    -155.4959
      XYYY     -68.5119   YYYY    -777.0954   XXXZ     -23.9964
      XXYZ     -31.6410   XYYZ     -14.6156   YYYZ     -96.3905
      XXZZ    -106.5738   XYZZ     -22.7302   YYZZ    -209.1615
      XZZZ     -26.3489   YZZZ    -100.4027   ZZZZ    -483.0554
 -----------------------------------------------------------------
 Total job time:  155.84s(wall), 154.37s(cpu) 
 Sun Jul 10 09:09:22 2022

        *************************************************************
        *                                                           *
        *  Thank you very much for using Q-Chem.  Have a nice day.  *
        *                                                           *
        *************************************************************


remove work dirs ./qchem3418156.0 -- ./qchem3418156.-1
rm -rf ./qchem3418156
