You are running Q-Chem version: 5.4.0

#
# job setting
#
local host:  exp-2-29
current dir: /expanse/lustre/scratch/theleonzhang/temp_project/Hydrogenated_Impropers_Test
input file:  Methylthiophene_Phi_40_Theta_70_Methylthiophene_Hydrogenated_Improper_Alternate.qcin
output file: 
nprocs     : 0
nthreads   : 1
#
# qchem installation setting
#
QC:          /cm/shared/apps/spack/cpu/opt/spack/linux-centos8-zen2/gcc-10.2.0/qchem-5.4-akfmr7b3t57bfs6qan3padb2wnb2i7cl
QCAUX:       /cm/shared/apps/spack/cpu/opt/spack/linux-centos8-zen2/gcc-10.2.0/qchem-5.4-akfmr7b3t57bfs6qan3padb2wnb2i7cl/qcaux
QCPROG:      /cm/shared/apps/spack/cpu/opt/spack/linux-centos8-zen2/gcc-10.2.0/qchem-5.4-akfmr7b3t57bfs6qan3padb2wnb2i7cl/exe/qcprog.exe_s
QCPROG_S:    /cm/shared/apps/spack/cpu/opt/spack/linux-centos8-zen2/gcc-10.2.0/qchem-5.4-akfmr7b3t57bfs6qan3padb2wnb2i7cl/exe/qcprog.exe_s
PARALLEL:    -DSERIAL
QCMPI:       mpich
#
# qchem directory setting
#
qcrun:       qchem573224
QCSCRATCH:   .
QCLOCALSCR:  
QCTMPDIR:    .
QCFILEPREF:  ./qchem573224
QCSAVEDIR:   
workdirs:    ./qchem573224
workdir0:    ./qchem573224
partmpdirs =  
#
# parallel setting
#
QCRSH:           ssh
QCMPI:           mpich
QCMPIRUN:        /cm/shared/apps/spack/cpu/opt/spack/linux-centos8-zen2/gcc-10.2.0/qchem-5.4-akfmr7b3t57bfs6qan3padb2wnb2i7cl/bin/mpi/mpirun_qchem
QCMACHINEFILE:   ./qchem573224/hostfile

#
# env setting
#
exported envs:   QC QCAUX QCSCRATCH QCRUNNAME QCFILEPREF QCPROG QCPROG_S GUIFILE

Running Job 1 of 1 Methylthiophene_Phi_40_Theta_70_Methylthiophene_Hydrogenated_Improper_Alternate.qcin
qchem Methylthiophene_Phi_40_Theta_70_Methylthiophene_Hydrogenated_Improper_Alternate.qcin_573224.0 ./qchem573224/ 0
/cm/shared/apps/spack/cpu/opt/spack/linux-centos8-zen2/gcc-10.2.0/qchem-5.4-akfmr7b3t57bfs6qan3padb2wnb2i7cl/exe/qcprog.exe_s Methylthiophene_Phi_40_Theta_70_Methylthiophene_Hydrogenated_Improper_Alternate.qcin_573224.0 ./qchem573224/
                  Welcome to Q-Chem
     A Quantum Leap Into The Future Of Chemistry


 Q-Chem 5.4, Q-Chem, Inc., Pleasanton, CA (2021)

 License issued to: University of California, San Diego (site)

 E. Epifanovsky,  A. T. B. Gilbert,  Xintian Feng,  Joonho Lee,  Yuezhi Mao,  
 N. Mardirossian,  P. Pokhilko,  A. White,  M. Wormit,  M. P. Coons,  
 A. L. Dempwolff,  Zhengting Gan,  D. Hait,  P. R. Horn,  L. D. Jacobson,  
 I. Kaliman,  J. Kussmann,  A. W. Lange,  Ka Un Lao,  D. S. Levine,  Jie Liu,  
 S. C. McKenzie,  A. F. Morrison,  K. Nanda,  F. Plasser,  D. R. Rehn,  
 M. L. Vidal,  Zhi-Qiang You,  Ying Zhu,  B. Alam,  B. Albrecht,  
 A. Aldossary,  E. Alguire,  J. H. Andersen,  D. Barton,  K. Begam,  A. Behn,  
 Y. A. Bernard,  E. J. Berquist,  H. Burton,  A. Carreras,  K. Carter-Fenk,  
 R. Chakraborty,  A. D. Chien,  K. D. Closser,  V. Cofer-Shabica,  
 S. Dasgupta,  Jia Deng,  M. de Wergifosse,  M. Diedenhofen,  Hainam Do,  
 S. Ehlert,  Po-Tung Fang,  S. Fatehi,  Qingguo Feng,  J. Gayvert,  
 Qinghui Ge,  G. Gidofalvi,  M. Goldey,  J. Gomes,  C. Gonzalez-Espinoza,  
 S. Gulania,  A. Gunina,  M. W. D. Hanson-Heine,  P. H. P. Harbach,  
 A. W. Hauser,  M. F. Herbst,  M. Hernandez Vera,  M. Hodecker,  
 Z. C. Holden,  S. Houck,  Xunkun Huang,  Kerwin Hui,  B. C. Huynh,  
 M. Ivanov,  Hyunjun Ji,  Hanjie Jiang,  B. Kaduk,  S. Kaehler,  
 K. Khistyaev,  Jaehoon Kim,  P. Klunzinger,  Z. Koczor-Benda,  
 Joong Hoon Koh,  D. Kosenkov,  L. Koulias,  T. Kowalczyk,  C. M. Krauter,  
 K. Kue,  A. Kunitsa,  T. Kus,  A. Landau,  K. V. Lawler,  D. Lefrancois,  
 S. Lehtola,  Rain Li,  Yi-Pei Li,  Jiashu Liang,  M. Liebenthal,  
 Hung-Hsuan Lin,  You-Sheng Lin,  Fenglai Liu,  Kuan-Yu Liu,  
 M. Loipersberger,  A. Luenser,  A. Manjanath,  P. Manohar,  E. Mansoor,  
 S. F. Manzer,  Shan-Ping Mao,  A. V. Marenich,  T. Markovich,  S. Mason,  
 S. A. Maurer,  P. F. McLaughlin,  M. F. S. J. Menger,  J.-M. Mewes,  
 S. A. Mewes,  P. Morgante,  J. W. Mullinax,  T. S. Nguyen-Beck,  
 K. J. Oosterbaan,  G. Paran,  Alexander C. Paul,  Suranjan K. Paul,  
 F. Pavosevic,  Zheng Pei,  S. Prager,  E. I. Proynov,  E. Ramos,  B. Rana,  
 A. E. Rask,  A. Rettig,  R. M. Richard,  F. Rob,  E. Rossomme,  T. Scheele,  
 M. Scheurer,  M. Schneider,  N. Sergueev,  S. M. Sharada,  W. Skomorowski,  
 D. W. Small,  C. J. Stein,  Yu-Chuan Su,  E. J. Sundstrom,  Zhen Tao,  
 J. Thirman,  T. Tsuchimochi,  N. M. Tubman,  S. P. Veccham,  O. Vydrov,  
 J. Wenzel,  J. Witte,  A. Yamada,  Kun Yao,  S. Yeganeh,  S. R. Yost,  
 A. Zech,  Igor Ying Zhang,  Xing Zhang,  Yu Zhang,  D. Zuev,  
 A. Aspuru-Guzik,  A. T. Bell,  N. A. Besley,  K. B. Bravaya,  B. R. Brooks,  
 D. Casanova,  Jeng-Da Chai,  S. Coriani,  C. J. Cramer,  
 A. E. DePrince, III,  R. A. DiStasio Jr.,  A. Dreuw,  B. D. Dunietz,  
 T. R. Furlani,  W. A. Goddard III,  S. Grimme,  S. Hammes-Schiffer,  
 T. Head-Gordon,  W. J. Hehre,  Chao-Ping Hsu,  T.-C. Jagau,  Yousung Jung,  
 A. Klamt,  Jing Kong,  D. S. Lambrecht,  WanZhen Liang,  N. J. Mayhall,  
 C. W. McCurdy,  J. B. Neaton,  C. Ochsenfeld,  J. A. Parkhill,  R. Peverati,  
 V. A. Rassolov,  Yihan Shao,  L. V. Slipchenko,  T. Stauch,  R. P. Steele,  
 J. E. Subotnik,  A. J. W. Thom,  A. Tkatchenko,  D. G. Truhlar,  
 T. Van Voorhis,  T. A. Wesolowski,  K. B. Whaley,  H. L. Woodcock III,  
 P. M. Zimmerman,  S. Faraji,  P. M. W. Gill,  M. Head-Gordon,  
 J. M. Herbert,  A. I. Krylov

 Contributors to earlier versions of Q-Chem not listed above: 
 R. D. Adamson,  B. Austin,  R. Baer,  J. Baker,  G. J. O. Beran,  
 K. Brandhorst,  S. T. Brown,  E. F. C. Byrd,  A. K. Chakraborty,  
 G. K. L. Chan,  Chun-Min Chang,  Yunqing Chen,  C.-L. Cheng,  
 Siu Hung Chien,  D. M. Chipman,  D. L. Crittenden,  H. Dachsel,  
 R. J. Doerksen,  A. D. Dutoi,  R. G. Edgar,  J. Fosso-Tande,  
 L. Fusti-Molnar,  D. Ghosh,  A. Ghysels,  A. Golubeva-Zadorozhnaya,  
 J. Gonthier,  M. S. Gordon,  S. R. Gwaltney,  G. Hawkins,  J. E. Herr,  
 A. Heyden,  S. Hirata,  E. G. Hohenstein,  G. Kedziora,  F. J. Keil,  
 C. Kelley,  Jihan Kim,  R. A. King,  R. Z. Khaliullin,  P. P. Korambath,  
 W. Kurlancheek,  A. Laurent,  A. M. Lee,  M. S. Lee,  S. V. Levchenko,  
 Ching Yeh Lin,  D. Liotard,  E. Livshits,  R. C. Lochan,  I. Lotan,  
 L. A. Martinez-Martinez,  P. E. Maslen,  N. Nair,  D. P. O'Neill,  
 D. Neuhauser,  E. Neuscamman,  C. M. Oana,  R. Olivares-Amaya,  R. Olson,  
 T. M. Perrine,  B. Peters,  P. A. Pieniazek,  A. Prociuk,  Y. M. Rhee,  
 J. Ritchie,  M. A. Rohrdanz,  E. Rosta,  N. J. Russ,  H. F. Schaefer III,  
 M. W. Schmidt,  N. E. Schultz,  S. Sharma,  N. Shenvi,  C. D. Sherrill,  
 A. C. Simmonett,  A. Sodt,  T. Stein,  D. Stuck,  K. S. Thanthiriwatte,  
 V. Vanovschi,  L. Vogt,  Tao Wang,  A. Warshel,  M. A. Watson,  
 C. F. Williams,  Q. Wu,  X. Xu,  Jun Yang,  W. Zhang,  Yan Zhao

 Please cite Q-Chem as follows:
 Y. Shao et al., Mol. Phys. 113, 184-215 (2015)
 DOI: 10.1080/00268976.2014.952696

 Q-Chem 5.4.0 for Intel X86 EM64T Linux

 Parts of Q-Chem use Armadillo 9.800.1 (Horizon Scraper).
 http://arma.sourceforge.net/

 Q-Chem begins on Sun Jul 10 09:46:34 2022  

 Host: 
0

     Scratch files written to ./qchem573224//
 May1621 |scratch|qcdevops|jenkins|workspace|build_RNUM    
 Processing $rem in /cm/shared/apps/spack/cpu/opt/spack/linux-centos8-zen2/gcc-10.2.0/qchem-5.4-akfmr7b3t57bfs6qan3padb2wnb2i7cl/config/preferences:
 Processing $rem in /home/theleonzhang/.qchemrc:
 Symmetry turned off for PCM/SM12/SMD calculation
 Core orbitals will be frozen

 Checking the input file for inconsistencies... 	...done.

--------------------------------------------------------------
User input:
--------------------------------------------------------------
$molecule
0 1
C	-0.437160	-0.417594	0.010276
C	0.117940	0.243906	1.109676
C	1.007540	1.304106	0.786976
H	-0.119060	-0.038594	2.146376
C	1.149440	1.473106	-0.602224
S	0.168640	0.304306	-1.476524
C	1.706740	2.137306	1.824876
H	1.433140	1.811306	2.846976
H	1.443740	3.212106	1.736476
H	2.810940	2.064906	1.736476
C	-0.437160	-1.858294	0.010276
H	-0.067860	-1.858494	1.025176
H	0.332640	-2.562094	-0.269824
H	-1.327160	-2.377194	0.334176
H	1.759540	2.200206	-1.151324
$end

$rem
JOBTYPE		SP
EXCHANGE	HF
CORRELATION	pRIMP2
BASIS		cc-pvtz
METHOD		rimp2
AUX_BASIS	rimp2-cc-pvtz
SOLVENT_METHOD	PCM
PURECART	11111
SYMMETRY	false
MEM_TOTAL	110000
SCF_CONVERGENCE = 6
THRESH=10
$end



$solvent
dielectric 4.90
$end
--------------------------------------------------------------
 ----------------------------------------------------------------
             Standard Nuclear Orientation (Angstroms)
    I     Atom           X                Y                Z
 ----------------------------------------------------------------
    1      C      -0.4371600000    -0.4175940000     0.0102760000
    2      C       0.1179400000     0.2439060000     1.1096760000
    3      C       1.0075400000     1.3041060000     0.7869760000
    4      H      -0.1190600000    -0.0385940000     2.1463760000
    5      C       1.1494400000     1.4731060000    -0.6022240000
    6      S       0.1686400000     0.3043060000    -1.4765240000
    7      C       1.7067400000     2.1373060000     1.8248760000
    8      H       1.4331400000     1.8113060000     2.8469760000
    9      H       1.4437400000     3.2121060000     1.7364760000
   10      H       2.8109400000     2.0649060000     1.7364760000
   11      C      -0.4371600000    -1.8582940000     0.0102760000
   12      H      -0.0678600000    -1.8584940000     1.0251760000
   13      H       0.3326400000    -2.5620940000    -0.2698240000
   14      H      -1.3271600000    -2.3771940000     0.3341760000
   15      H       1.7595400000     2.2002060000    -1.1513240000
 ----------------------------------------------------------------
 Nuclear Repulsion Energy =         347.30010766 hartrees
 There are       30 alpha and       30 beta electrons

 Q-Chem warning in module forms1/BasisType.C, line 2236:

 You are not using the predefined 5D/6D in this basis set.

 Requested basis set is cc-pVTZ
 There are 120 shells and 326 basis functions

 Total QAlloc Memory Limit 110000 MB
 Mega-Array Size       188 MB
 MEM_STATIC part       192 MB
 Discretize the solute cavity surface with Lebedev spheres
	Using 110 Lebedev grid points for each H atom
	Using 194 Lebedev grid points for other atoms
	Atomic van der Waals radii will be scaled by 1.20
 Remove points where switching function is < 1.0e-08
 Keep 1050 surface tesserae and discard 1188 interior tesserae
 Molecular Surface Area = 157.002 Angst**2

                       Distance Matrix (Angstroms)
             C (  1)   C (  2)   C (  3)   H (  4)   C (  5)   S (  6)
   C (  2)  1.397998
   C (  3)  2.377955  1.421108
   H (  4)  2.192659  1.100328  2.218116
   C (  5)  2.543069  2.346386  1.406618  3.383656
   S (  6)  1.760315  2.587402  2.612812  3.650446  1.758540
   C (  7)  3.796919  2.573084  1.503442  2.858575  2.577316  4.077362
   H (  8)  4.063605  2.684158  2.163790  2.514417  3.477333  4.750017
   H (  9)  4.437598  3.310715  2.175382  3.630071  2.929207  4.517140
   H ( 10)  4.437649  3.310766  2.175458  3.630101  2.929220  4.517171
   C ( 11)  1.440700  2.436403  3.562470  2.824078  3.740412  2.693401
   H ( 12)  1.800721  2.112285  3.348920  2.138164  3.902539  3.315439
   H ( 13)  2.295632  3.134127  4.064458  3.522798  4.130435  3.114365
   H ( 14)  2.176475  3.091905  4.382673  3.195720  4.672815  3.564617
   H ( 15)  3.609388  3.410877  2.263958  4.406380  1.096543  2.496228
             C (  7)   H (  8)   H (  9)   H ( 10)   C ( 11)   H ( 12)
   H (  8)  1.107168
   H (  9)  1.110035  1.787614
   H ( 10)  1.110096  1.787696  1.784742
   C ( 11)  4.884045  5.001085  5.676840  5.377864
   H ( 12)  4.444676  4.363415  5.338714  4.917978  1.080002
   H ( 13)  5.325437  5.481986  6.212984  5.619283  1.079992  1.527245
   H ( 14)  5.639809  5.610432  6.394107  6.230776  1.079939  1.527209
   H ( 15)  2.977333  4.030407  3.076209  3.076221  4.758805  4.954754
             H ( 13)   H ( 14)
   H ( 14)  1.775934
   H ( 15)  5.049018  5.717256
 
 Requested basis set is rimp2-cc-pVTZ
 There are 250 shells and 848 basis functions
 A cutoff of  1.0D-10 yielded   6282 shell pairs
 There are     46150 function pairs (     59354 Cartesian)
 Smallest overlap matrix eigenvalue = 1.38E-04

 Scale SEOQF with 1.000000e-01/1.000000e-01/1.000000e-01

 Standard Electronic Orientation quadrupole field applied
 Nucleus-field energy     =     0.0000000003 hartrees
 Guess from superposition of atomic densities
 Warning:  Energy on first SCF cycle will be non-variational
 SAD guess density has 60.000000 electrons

 -----------------------------------------------------------------------
  General SCF calculation program by
  Eric Jon Sundstrom, Paul Horn, Yuezhi Mao, Dmitri Zuev, Alec White,
  David Stuck, Shaama M.S., Shane Yost, Joonho Lee, David Small,
  Daniel Levine, Susi Lehtola, Hugh Burton, Evgeny Epifanovsky,
  Bang C. Huynh
 -----------------------------------------------------------------------
 Hartree-Fock
 A restricted SCF calculation will be
 performed using DIIS
 SCF converges when DIIS error is below 1.0e-06
 ---------------------------------------
  Cycle       Energy         DIIS error
 ---------------------------------------
    1    -632.1591004756      2.94e-02  
    2    -629.3065925468      1.91e-03  
    3    -629.3765212954      6.19e-04  
    4    -629.3835687929      3.02e-04  
    5    -629.3852286860      6.31e-05  
    6    -629.3853673543      2.55e-05  
    7    -629.3854059202      1.21e-05  
    8    -629.3854182175      4.22e-06  
    9    -629.3854199025      1.51e-06  
   10    -629.3854200354      5.33e-07  Convergence criterion met
 ---------------------------------------
 SCF time:   CPU 146.07s  wall 147.00s 

************** Final PCM Free Energy Summary **************
 G_electrostatic  =      -0.00540656 hartree =      -3.39266616 kcal/mol
 G_cavitation     =       0.00000000 hartree =       0.00000000 kcal/mol
 G_dispersion     =       0.00000000 hartree =       0.00000000 kcal/mol
 G_repulsion      =       0.00000000 hartree =       0.00000000 kcal/mol
 --------------------------------------------------
 Non-electrostatic Free Energy =       0.00000000 hartree =       0.00000000 kcal/mol
 Total                         =      -0.00540656 hartree =      -3.39266616 kcal/mol
 --------------------------------------------------
 SCF Energy (H0 + V/2)                       =    -629.38542004 
 Solute Internal Energy (H0)                 =    -629.38001348 
 Total Free Energy (H0 + V/2 + non-elec)     =    -629.38542004 hartree
                                             = -394945.31198155 kcal/mol
***********************************************************

 SCF   energy in the final basis set =     -629.3854200354
 Total energy in the final basis set =     -629.3854200354


 --------------------------------------------------------------
  Generalized many-body perturbation theory program
  by Joonho Lee, Fazle Rob, Xintian Feng, Evgeny Epifanovsky

 No regularization used 
 (reg. param. = 0.0000e+00)
  (P|Q)^-1/2 Time:  CPU 0.48 s  wall 0.49 s

 In RI-MP2 calculation: 
 # of frozen core orbitals: 11

 Components of the RIMP2 correlation energy:
        aaaa    correlation energy =        -0.1470416535 a.u.
        abab    correlation energy =        -0.8918960739 a.u.
        bbbb    correlation energy =        -0.1470416535 a.u.
        non-Brillouin singles      =        -0.0000000000 a.u.
        total same-spin energy     =        -0.2940833071 a.u.
        total opposite-spin energy =        -0.8918960739 a.u.

 Total  RIMP2   correlation energy =        -1.1859793810 a.u.
        RIMP2         total energy =      -630.5713994164 a.u.

 RI-MP2 Energy Time:  CPU 11.36 s  wall 11.40 s
 
 --------------------------------------------------------------
 
                    Orbital Energies (a.u.)
 --------------------------------------------------------------
 
 Alpha MOs
 -- Occupied --
-91.9756 -11.2662 -11.2643 -11.2478 -11.2400 -11.2281 -11.2096  -8.9758
 -6.6567  -6.6560  -6.6556  -1.1665  -1.0543  -0.9999  -0.9361  -0.8834
 -0.7440  -0.7283  -0.6453  -0.5883  -0.5799  -0.5717  -0.5549  -0.5424
 -0.5156  -0.4694  -0.4664  -0.4386  -0.3336  -0.3009
 -- Virtual --
  0.0808   0.1433   0.1577   0.1773   0.1841   0.1911   0.2003   0.2222
  0.2312   0.2435   0.2507   0.2680   0.2899   0.3027   0.3425   0.3641
  0.3762   0.3918   0.4059   0.4171   0.4330   0.4509   0.4647   0.4749
  0.4892   0.4995   0.5119   0.5299   0.5407   0.5542   0.5733   0.5768
  0.5926   0.6081   0.6160   0.6239   0.6379   0.6405   0.6430   0.6517
  0.6549   0.6629   0.6840   0.6965   0.7370   0.7468   0.7545   0.7722
  0.8059   0.8140   0.8273   0.8339   0.8651   0.8743   0.8986   0.9284
  0.9509   0.9699   1.0097   1.0301   1.0322   1.0517   1.0611   1.0762
  1.0842   1.1104   1.1298   1.1555   1.1680   1.1832   1.1970   1.2117
  1.2240   1.2306   1.2484   1.2653   1.2695   1.2921   1.3231   1.3470
  1.3607   1.3708   1.3802   1.3885   1.4215   1.4325   1.4458   1.4784
  1.4944   1.4991   1.5115   1.5296   1.5587   1.5678   1.5709   1.5778
  1.6053   1.6282   1.6411   1.6659   1.6712   1.7000   1.7150   1.7342
  1.7734   1.7855   1.8078   1.8297   1.8759   1.9197   1.9498   1.9694
  1.9901   2.0338   2.0934   2.1303   2.1556   2.1907   2.2129   2.2260
  2.2619   2.2665   2.3293   2.4119   2.4501   2.4789   2.5394   2.5605
  2.5640   2.6078   2.6332   2.6413   2.6790   2.6933   2.6995   2.7310
  2.7510   2.7745   2.7795   2.8075   2.8305   2.8435   2.8503   2.8756
  2.9012   2.9284   2.9673   2.9833   2.9955   3.0091   3.0392   3.0731
  3.0914   3.1110   3.1217   3.1474   3.1601   3.1618   3.1868   3.2005
  3.2057   3.2391   3.2541   3.2665   3.2816   3.2991   3.3069   3.3218
  3.3419   3.3493   3.3681   3.3784   3.3895   3.4081   3.4222   3.4316
  3.4455   3.4878   3.4939   3.5178   3.5271   3.5406   3.5577   3.5679
  3.5813   3.5911   3.6198   3.6281   3.6461   3.6549   3.6702   3.6873
  3.7096   3.7189   3.7339   3.7437   3.7505   3.7865   3.7956   3.7995
  3.8066   3.8340   3.8735   3.8944   3.9164   3.9382   3.9531   3.9693
  3.9939   3.9953   4.0151   4.0343   4.0677   4.0737   4.0871   4.1203
  4.1327   4.1543   4.1666   4.1836   4.2045   4.2191   4.2443   4.2581
  4.2864   4.3001   4.3112   4.3309   4.3632   4.3771   4.3933   4.4024
  4.4124   4.4477   4.4540   4.4700   4.4936   4.5303   4.5576   4.5787
  4.6078   4.6584   4.6743   4.6897   4.7205   4.7545   4.7585   4.7934
  4.8183   4.8472   4.8726   4.8973   4.9236   4.9335   5.0700   5.0780
  5.1137   5.1224   5.1798   5.2065   5.2368   5.2567   5.2839   5.3049
  5.3713   5.4027   5.4160   5.4296   5.4786   5.4866   5.5457   5.5583
  5.5845   5.6219   5.6284   5.6844   5.7072   5.8113   5.8371   5.8677
  5.9033   5.9796   6.0053   6.0971   6.2265   6.2290   6.2668   6.3523
  6.4185   6.4686   9.2858  11.7101  12.8522  13.7872  14.1994  14.2126
 --------------------------------------------------------------
 
          Ground-State Mulliken Net Atomic Charges

     Atom                 Charge (a.u.)
  ----------------------------------------
      1 C                    -0.016098
      2 C                    -0.217209
      3 C                     0.017956
      4 H                     0.176630
      5 C                    -0.229269
      6 S                     0.004320
      7 C                    -0.269749
      8 H                     0.101307
      9 H                     0.107055
     10 H                     0.105687
     11 C                    -0.371320
     12 H                     0.127785
     13 H                     0.155380
     14 H                     0.113860
     15 H                     0.193665
  ----------------------------------------
  Sum of atomic charges =     0.000000

 -----------------------------------------------------------------
                    Cartesian Multipole Moments
 -----------------------------------------------------------------
    Charge (ESU x 10^10)
                -0.0000
    Dipole Moment (Debye)
         X       1.5160      Y       0.1274      Z       2.1733
       Tot       2.6529
    Quadrupole Moments (Debye-Ang)
        XX     -50.7173     XY       3.7244     YY     -46.6456
        XZ      -0.4171     YZ      -0.9820     ZZ     -48.4561
    Octopole Moments (Debye-Ang^2)
       XXX     -64.5371    XXY     -15.6206    XYY     -12.8684
       YYY     -60.1723    XXZ      -3.3241    XYZ      -0.7360
       YYZ      -2.0802    XZZ     -19.7065    YZZ     -16.8234
       ZZZ       1.3064
    Hexadecapole Moments (Debye-Ang^3)
      XXXX    -309.6250   XXXY    -153.0485   XXYY    -141.8720
      XYYY    -153.7172   YYYY    -589.5821   XXXZ     -61.6690
      XXYZ     -27.7582   XYYZ     -27.5315   YYYZ     -77.1233
      XXZZ    -132.8670   XYZZ     -44.9031   YYZZ    -180.6582
      XZZZ     -63.8919   YZZZ     -73.1194   ZZZZ    -480.7404
 -----------------------------------------------------------------
 Total job time:  159.41s(wall), 157.80s(cpu) 
 Sun Jul 10 09:49:14 2022

        *************************************************************
        *                                                           *
        *  Thank you very much for using Q-Chem.  Have a nice day.  *
        *                                                           *
        *************************************************************


remove work dirs ./qchem573224.0 -- ./qchem573224.-1
rm -rf ./qchem573224
