You are running Q-Chem version: 5.4.0

#
# job setting
#
local host:  exp-5-33
current dir: /expanse/lustre/scratch/theleonzhang/temp_project/Hydrogenated_Impropers_Test
input file:  Methylthiophene_Phi_30_Theta_120_Methylthiophene_Hydrogenated_Improper_Alternate.qcin
output file: 
nprocs     : 0
nthreads   : 1
#
# qchem installation setting
#
QC:          /cm/shared/apps/spack/cpu/opt/spack/linux-centos8-zen2/gcc-10.2.0/qchem-5.4-akfmr7b3t57bfs6qan3padb2wnb2i7cl
QCAUX:       /cm/shared/apps/spack/cpu/opt/spack/linux-centos8-zen2/gcc-10.2.0/qchem-5.4-akfmr7b3t57bfs6qan3padb2wnb2i7cl/qcaux
QCPROG:      /cm/shared/apps/spack/cpu/opt/spack/linux-centos8-zen2/gcc-10.2.0/qchem-5.4-akfmr7b3t57bfs6qan3padb2wnb2i7cl/exe/qcprog.exe_s
QCPROG_S:    /cm/shared/apps/spack/cpu/opt/spack/linux-centos8-zen2/gcc-10.2.0/qchem-5.4-akfmr7b3t57bfs6qan3padb2wnb2i7cl/exe/qcprog.exe_s
PARALLEL:    -DSERIAL
QCMPI:       mpich
#
# qchem directory setting
#
qcrun:       qchem2169112
QCSCRATCH:   .
QCLOCALSCR:  
QCTMPDIR:    .
QCFILEPREF:  ./qchem2169112
QCSAVEDIR:   
workdirs:    ./qchem2169112
workdir0:    ./qchem2169112
partmpdirs =  
#
# parallel setting
#
QCRSH:           ssh
QCMPI:           mpich
QCMPIRUN:        /cm/shared/apps/spack/cpu/opt/spack/linux-centos8-zen2/gcc-10.2.0/qchem-5.4-akfmr7b3t57bfs6qan3padb2wnb2i7cl/bin/mpi/mpirun_qchem
QCMACHINEFILE:   ./qchem2169112/hostfile

#
# env setting
#
exported envs:   QC QCAUX QCSCRATCH QCRUNNAME QCFILEPREF QCPROG QCPROG_S GUIFILE

Running Job 1 of 1 Methylthiophene_Phi_30_Theta_120_Methylthiophene_Hydrogenated_Improper_Alternate.qcin
qchem Methylthiophene_Phi_30_Theta_120_Methylthiophene_Hydrogenated_Improper_Alternate.qcin_2169112.0 ./qchem2169112/ 0
/cm/shared/apps/spack/cpu/opt/spack/linux-centos8-zen2/gcc-10.2.0/qchem-5.4-akfmr7b3t57bfs6qan3padb2wnb2i7cl/exe/qcprog.exe_s Methylthiophene_Phi_30_Theta_120_Methylthiophene_Hydrogenated_Improper_Alternate.qcin_2169112.0 ./qchem2169112/
                  Welcome to Q-Chem
     A Quantum Leap Into The Future Of Chemistry


 Q-Chem 5.4, Q-Chem, Inc., Pleasanton, CA (2021)

 License issued to: University of California, San Diego (site)

 E. Epifanovsky,  A. T. B. Gilbert,  Xintian Feng,  Joonho Lee,  Yuezhi Mao,  
 N. Mardirossian,  P. Pokhilko,  A. White,  M. Wormit,  M. P. Coons,  
 A. L. Dempwolff,  Zhengting Gan,  D. Hait,  P. R. Horn,  L. D. Jacobson,  
 I. Kaliman,  J. Kussmann,  A. W. Lange,  Ka Un Lao,  D. S. Levine,  Jie Liu,  
 S. C. McKenzie,  A. F. Morrison,  K. Nanda,  F. Plasser,  D. R. Rehn,  
 M. L. Vidal,  Zhi-Qiang You,  Ying Zhu,  B. Alam,  B. Albrecht,  
 A. Aldossary,  E. Alguire,  J. H. Andersen,  D. Barton,  K. Begam,  A. Behn,  
 Y. A. Bernard,  E. J. Berquist,  H. Burton,  A. Carreras,  K. Carter-Fenk,  
 R. Chakraborty,  A. D. Chien,  K. D. Closser,  V. Cofer-Shabica,  
 S. Dasgupta,  Jia Deng,  M. de Wergifosse,  M. Diedenhofen,  Hainam Do,  
 S. Ehlert,  Po-Tung Fang,  S. Fatehi,  Qingguo Feng,  J. Gayvert,  
 Qinghui Ge,  G. Gidofalvi,  M. Goldey,  J. Gomes,  C. Gonzalez-Espinoza,  
 S. Gulania,  A. Gunina,  M. W. D. Hanson-Heine,  P. H. P. Harbach,  
 A. W. Hauser,  M. F. Herbst,  M. Hernandez Vera,  M. Hodecker,  
 Z. C. Holden,  S. Houck,  Xunkun Huang,  Kerwin Hui,  B. C. Huynh,  
 M. Ivanov,  Hyunjun Ji,  Hanjie Jiang,  B. Kaduk,  S. Kaehler,  
 K. Khistyaev,  Jaehoon Kim,  P. Klunzinger,  Z. Koczor-Benda,  
 Joong Hoon Koh,  D. Kosenkov,  L. Koulias,  T. Kowalczyk,  C. M. Krauter,  
 K. Kue,  A. Kunitsa,  T. Kus,  A. Landau,  K. V. Lawler,  D. Lefrancois,  
 S. Lehtola,  Rain Li,  Yi-Pei Li,  Jiashu Liang,  M. Liebenthal,  
 Hung-Hsuan Lin,  You-Sheng Lin,  Fenglai Liu,  Kuan-Yu Liu,  
 M. Loipersberger,  A. Luenser,  A. Manjanath,  P. Manohar,  E. Mansoor,  
 S. F. Manzer,  Shan-Ping Mao,  A. V. Marenich,  T. Markovich,  S. Mason,  
 S. A. Maurer,  P. F. McLaughlin,  M. F. S. J. Menger,  J.-M. Mewes,  
 S. A. Mewes,  P. Morgante,  J. W. Mullinax,  T. S. Nguyen-Beck,  
 K. J. Oosterbaan,  G. Paran,  Alexander C. Paul,  Suranjan K. Paul,  
 F. Pavosevic,  Zheng Pei,  S. Prager,  E. I. Proynov,  E. Ramos,  B. Rana,  
 A. E. Rask,  A. Rettig,  R. M. Richard,  F. Rob,  E. Rossomme,  T. Scheele,  
 M. Scheurer,  M. Schneider,  N. Sergueev,  S. M. Sharada,  W. Skomorowski,  
 D. W. Small,  C. J. Stein,  Yu-Chuan Su,  E. J. Sundstrom,  Zhen Tao,  
 J. Thirman,  T. Tsuchimochi,  N. M. Tubman,  S. P. Veccham,  O. Vydrov,  
 J. Wenzel,  J. Witte,  A. Yamada,  Kun Yao,  S. Yeganeh,  S. R. Yost,  
 A. Zech,  Igor Ying Zhang,  Xing Zhang,  Yu Zhang,  D. Zuev,  
 A. Aspuru-Guzik,  A. T. Bell,  N. A. Besley,  K. B. Bravaya,  B. R. Brooks,  
 D. Casanova,  Jeng-Da Chai,  S. Coriani,  C. J. Cramer,  
 A. E. DePrince, III,  R. A. DiStasio Jr.,  A. Dreuw,  B. D. Dunietz,  
 T. R. Furlani,  W. A. Goddard III,  S. Grimme,  S. Hammes-Schiffer,  
 T. Head-Gordon,  W. J. Hehre,  Chao-Ping Hsu,  T.-C. Jagau,  Yousung Jung,  
 A. Klamt,  Jing Kong,  D. S. Lambrecht,  WanZhen Liang,  N. J. Mayhall,  
 C. W. McCurdy,  J. B. Neaton,  C. Ochsenfeld,  J. A. Parkhill,  R. Peverati,  
 V. A. Rassolov,  Yihan Shao,  L. V. Slipchenko,  T. Stauch,  R. P. Steele,  
 J. E. Subotnik,  A. J. W. Thom,  A. Tkatchenko,  D. G. Truhlar,  
 T. Van Voorhis,  T. A. Wesolowski,  K. B. Whaley,  H. L. Woodcock III,  
 P. M. Zimmerman,  S. Faraji,  P. M. W. Gill,  M. Head-Gordon,  
 J. M. Herbert,  A. I. Krylov

 Contributors to earlier versions of Q-Chem not listed above: 
 R. D. Adamson,  B. Austin,  R. Baer,  J. Baker,  G. J. O. Beran,  
 K. Brandhorst,  S. T. Brown,  E. F. C. Byrd,  A. K. Chakraborty,  
 G. K. L. Chan,  Chun-Min Chang,  Yunqing Chen,  C.-L. Cheng,  
 Siu Hung Chien,  D. M. Chipman,  D. L. Crittenden,  H. Dachsel,  
 R. J. Doerksen,  A. D. Dutoi,  R. G. Edgar,  J. Fosso-Tande,  
 L. Fusti-Molnar,  D. Ghosh,  A. Ghysels,  A. Golubeva-Zadorozhnaya,  
 J. Gonthier,  M. S. Gordon,  S. R. Gwaltney,  G. Hawkins,  J. E. Herr,  
 A. Heyden,  S. Hirata,  E. G. Hohenstein,  G. Kedziora,  F. J. Keil,  
 C. Kelley,  Jihan Kim,  R. A. King,  R. Z. Khaliullin,  P. P. Korambath,  
 W. Kurlancheek,  A. Laurent,  A. M. Lee,  M. S. Lee,  S. V. Levchenko,  
 Ching Yeh Lin,  D. Liotard,  E. Livshits,  R. C. Lochan,  I. Lotan,  
 L. A. Martinez-Martinez,  P. E. Maslen,  N. Nair,  D. P. O'Neill,  
 D. Neuhauser,  E. Neuscamman,  C. M. Oana,  R. Olivares-Amaya,  R. Olson,  
 T. M. Perrine,  B. Peters,  P. A. Pieniazek,  A. Prociuk,  Y. M. Rhee,  
 J. Ritchie,  M. A. Rohrdanz,  E. Rosta,  N. J. Russ,  H. F. Schaefer III,  
 M. W. Schmidt,  N. E. Schultz,  S. Sharma,  N. Shenvi,  C. D. Sherrill,  
 A. C. Simmonett,  A. Sodt,  T. Stein,  D. Stuck,  K. S. Thanthiriwatte,  
 V. Vanovschi,  L. Vogt,  Tao Wang,  A. Warshel,  M. A. Watson,  
 C. F. Williams,  Q. Wu,  X. Xu,  Jun Yang,  W. Zhang,  Yan Zhao

 Please cite Q-Chem as follows:
 Y. Shao et al., Mol. Phys. 113, 184-215 (2015)
 DOI: 10.1080/00268976.2014.952696

 Q-Chem 5.4.0 for Intel X86 EM64T Linux

 Parts of Q-Chem use Armadillo 9.800.1 (Horizon Scraper).
 http://arma.sourceforge.net/

 Q-Chem begins on Sun Jul 10 09:56:09 2022  

 Host: 
0

     Scratch files written to ./qchem2169112//
 May1621 |scratch|qcdevops|jenkins|workspace|build_RNUM    
 Processing $rem in /cm/shared/apps/spack/cpu/opt/spack/linux-centos8-zen2/gcc-10.2.0/qchem-5.4-akfmr7b3t57bfs6qan3padb2wnb2i7cl/config/preferences:
 Processing $rem in /home/theleonzhang/.qchemrc:
 Symmetry turned off for PCM/SM12/SMD calculation
 Core orbitals will be frozen

 Checking the input file for inconsistencies... 	...done.

--------------------------------------------------------------
User input:
--------------------------------------------------------------
$molecule
0 1
C	-0.341105	-0.485421	0.019521
C	0.090695	0.262479	1.118921
C	0.782695	1.460979	0.796221
H	-0.093705	-0.056921	2.155621
C	0.892995	1.652079	-0.592979
S	0.130095	0.330679	-1.467279
C	1.326595	2.402979	1.834121
H	1.113795	2.034379	2.856221
H	0.880895	3.415779	1.745721
H	2.426595	2.523379	1.745721
C	-0.341105	-1.926121	0.019521
H	0.198995	-1.925821	-0.915679
H	0.368295	-2.629921	0.429121
H	-1.161305	-2.445021	-0.454079
H	1.367695	2.474079	-1.142079
$end

$rem
JOBTYPE		SP
EXCHANGE	HF
CORRELATION	pRIMP2
BASIS		cc-pvtz
METHOD		rimp2
AUX_BASIS	rimp2-cc-pvtz
SOLVENT_METHOD	PCM
PURECART	11111
SYMMETRY	false
MEM_TOTAL	110000
SCF_CONVERGENCE = 6
THRESH=10
$end



$solvent
dielectric 4.90
$end
--------------------------------------------------------------
 ----------------------------------------------------------------
             Standard Nuclear Orientation (Angstroms)
    I     Atom           X                Y                Z
 ----------------------------------------------------------------
    1      C      -0.3411050000    -0.4854210000     0.0195210000
    2      C       0.0906950000     0.2624790000     1.1189210000
    3      C       0.7826950000     1.4609790000     0.7962210000
    4      H      -0.0937050000    -0.0569210000     2.1556210000
    5      C       0.8929950000     1.6520790000    -0.5929790000
    6      S       0.1300950000     0.3306790000    -1.4672790000
    7      C       1.3265950000     2.4029790000     1.8341210000
    8      H       1.1137950000     2.0343790000     2.8562210000
    9      H       0.8808950000     3.4157790000     1.7457210000
   10      H       2.4265950000     2.5233790000     1.7457210000
   11      C      -0.3411050000    -1.9261210000     0.0195210000
   12      H       0.1989950000    -1.9258210000    -0.9156790000
   13      H       0.3682950000    -2.6299210000     0.4291210000
   14      H      -1.1613050000    -2.4450210000    -0.4540790000
   15      H       1.3676950000     2.4740790000    -1.1420790000
 ----------------------------------------------------------------
 Nuclear Repulsion Energy =         346.51803269 hartrees
 There are       30 alpha and       30 beta electrons

 Q-Chem warning in module forms1/BasisType.C, line 2236:

 You are not using the predefined 5D/6D in this basis set.

 Requested basis set is cc-pVTZ
 There are 120 shells and 326 basis functions

 Total QAlloc Memory Limit 110000 MB
 Mega-Array Size       188 MB
 MEM_STATIC part       192 MB
 Discretize the solute cavity surface with Lebedev spheres
	Using 110 Lebedev grid points for each H atom
	Using 194 Lebedev grid points for other atoms
	Atomic van der Waals radii will be scaled by 1.20
 Remove points where switching function is < 1.0e-08
 Keep 1048 surface tesserae and discard 1190 interior tesserae
 Molecular Surface Area = 157.730 Angst**2

                       Distance Matrix (Angstroms)
             C (  1)   C (  2)   C (  3)   H (  4)   C (  5)   S (  6)
   C (  2)  1.398029
   C (  3)  2.377953  1.421056
   H (  4)  2.192656  1.100348  2.218122
   C (  5)  2.543043  2.346332  1.406614  3.383646
   S (  6)  1.760291  2.587399  2.612833  3.650442  1.758555
   C (  7)  3.796953  2.573072  1.503472  2.858622  2.577339  4.077411
   H (  8)  4.063618  2.684134  2.163796  2.514445  3.477339  4.750043
   H (  9)  4.437613  3.310679  2.175416  3.630084  2.929215  4.517180
   H ( 10)  4.437658  3.310736  2.175466  3.630135  2.929268  4.517213
   C ( 11)  1.440700  2.486986  3.652210  2.849217  3.834276  2.743310
   H ( 12)  1.800294  2.989980  3.839495  3.607124  3.658844  2.323963
   H ( 13)  2.295626  2.986447  4.128190  3.132822  4.433455  3.523950
   H ( 14)  2.176478  3.372297  4.538637  3.695041  4.585376  3.224717
   H ( 15)  3.609425  3.410869  2.263980  4.406413  1.096602  2.496312
             C (  7)   H (  8)   H (  9)   H ( 10)   C ( 11)   H ( 12)
   H (  8)  1.107176
   H (  9)  1.110057  1.787657
   H ( 10)  1.110095  1.787673  1.784815
   C ( 11)  4.981476  5.084207  5.745341  5.517063
   H ( 12)  5.250847  5.545022  6.006724  5.642750  1.079957
   H ( 13)  5.312480  5.310582  6.208597  5.703204  1.079979  1.527385
   H ( 14)  5.910043  6.016576  6.584731  6.511309  1.079945  1.527436
   H ( 15)  2.977333  4.030410  3.076225  3.076213  4.861180  4.558096
             H ( 13)   H ( 14)
   H ( 14)  1.775924
   H ( 15)  5.433073  5.573754
 
 Requested basis set is rimp2-cc-pVTZ
 There are 250 shells and 848 basis functions
 A cutoff of  1.0D-10 yielded   6222 shell pairs
 There are     45598 function pairs (     58632 Cartesian)
 Smallest overlap matrix eigenvalue = 1.18E-04

 Scale SEOQF with 1.000000e-01/1.000000e-01/1.000000e-01

 Standard Electronic Orientation quadrupole field applied
 Nucleus-field energy     =     0.0000000012 hartrees
 Guess from superposition of atomic densities
 Warning:  Energy on first SCF cycle will be non-variational
 SAD guess density has 60.000000 electrons

 -----------------------------------------------------------------------
  General SCF calculation program by
  Eric Jon Sundstrom, Paul Horn, Yuezhi Mao, Dmitri Zuev, Alec White,
  David Stuck, Shaama M.S., Shane Yost, Joonho Lee, David Small,
  Daniel Levine, Susi Lehtola, Hugh Burton, Evgeny Epifanovsky,
  Bang C. Huynh
 -----------------------------------------------------------------------
 Hartree-Fock
 A restricted SCF calculation will be
 performed using DIIS
 SCF converges when DIIS error is below 1.0e-06
 ---------------------------------------
  Cycle       Energy         DIIS error
 ---------------------------------------
    1    -632.1385847146      2.93e-02  
    2    -629.3206950601      1.93e-03  
    3    -629.3912039076      6.68e-04  
    4    -629.3986646632      3.34e-04  
    5    -629.4006784543      6.46e-05  
    6    -629.4008204517      2.65e-05  
    7    -629.4008582113      1.21e-05  
    8    -629.4008690206      4.90e-06  
    9    -629.4008705736      1.89e-06  
   10    -629.4008707784      5.93e-07  Convergence criterion met
 ---------------------------------------
 SCF time:   CPU 145.51s  wall 146.00s 

************** Final PCM Free Energy Summary **************
 G_electrostatic  =      -0.00498976 hartree =      -3.13111959 kcal/mol
 G_cavitation     =       0.00000000 hartree =       0.00000000 kcal/mol
 G_dispersion     =       0.00000000 hartree =       0.00000000 kcal/mol
 G_repulsion      =       0.00000000 hartree =       0.00000000 kcal/mol
 --------------------------------------------------
 Non-electrostatic Free Energy =       0.00000000 hartree =       0.00000000 kcal/mol
 Total                         =      -0.00498976 hartree =      -3.13111959 kcal/mol
 --------------------------------------------------
 SCF Energy (H0 + V/2)                       =    -629.40087078 
 Solute Internal Energy (H0)                 =    -629.39588102 
 Total Free Energy (H0 + V/2 + non-elec)     =    -629.40087078 hartree
                                             = -394955.00746909 kcal/mol
***********************************************************

 SCF   energy in the final basis set =     -629.4008707784
 Total energy in the final basis set =     -629.4008707784


 --------------------------------------------------------------
  Generalized many-body perturbation theory program
  by Joonho Lee, Fazle Rob, Xintian Feng, Evgeny Epifanovsky

 No regularization used 
 (reg. param. = 0.0000e+00)
  (P|Q)^-1/2 Time:  CPU 0.51 s  wall 0.51 s

 In RI-MP2 calculation: 
 # of frozen core orbitals: 11

 Components of the RIMP2 correlation energy:
        aaaa    correlation energy =        -0.1460674266 a.u.
        abab    correlation energy =        -0.8890255572 a.u.
        bbbb    correlation energy =        -0.1460674266 a.u.
        non-Brillouin singles      =        -0.0000000000 a.u.
        total same-spin energy     =        -0.2921348533 a.u.
        total opposite-spin energy =        -0.8890255572 a.u.

 Total  RIMP2   correlation energy =        -1.1811604105 a.u.
        RIMP2         total energy =      -630.5820311888 a.u.

 RI-MP2 Energy Time:  CPU 12.63 s  wall 12.65 s
 
 --------------------------------------------------------------
 
                    Orbital Energies (a.u.)
 --------------------------------------------------------------
 
 Alpha MOs
 -- Occupied --
-91.9761 -11.2703 -11.2617 -11.2470 -11.2340 -11.2272 -11.2131  -8.9767
 -6.6576  -6.6570  -6.6564  -1.1641  -1.0557  -0.9943  -0.9452  -0.8804
 -0.7489  -0.7205  -0.6473  -0.5877  -0.5782  -0.5657  -0.5524  -0.5477
 -0.5123  -0.4815  -0.4632  -0.4444  -0.3383  -0.2984
 -- Virtual --
  0.0909   0.1444   0.1535   0.1737   0.1870   0.1889   0.2036   0.2242
  0.2369   0.2446   0.2486   0.2587   0.2902   0.3167   0.3469   0.3529
  0.3748   0.4055   0.4117   0.4280   0.4425   0.4574   0.4703   0.4748
  0.4842   0.4958   0.5110   0.5270   0.5408   0.5639   0.5696   0.5847
  0.5943   0.6046   0.6105   0.6138   0.6269   0.6368   0.6407   0.6489
  0.6564   0.6612   0.6871   0.7103   0.7193   0.7399   0.7685   0.7853
  0.8012   0.8110   0.8374   0.8620   0.8669   0.8918   0.9030   0.9382
  0.9491   0.9622   1.0001   1.0177   1.0241   1.0475   1.0611   1.0757
  1.0837   1.0925   1.1183   1.1404   1.1754   1.1762   1.1909   1.2160
  1.2240   1.2376   1.2475   1.2685   1.2807   1.2874   1.3109   1.3336
  1.3586   1.3855   1.4052   1.4188   1.4285   1.4371   1.4465   1.4732
  1.4871   1.4983   1.5102   1.5248   1.5408   1.5507   1.5753   1.5813
  1.5943   1.6328   1.6369   1.6690   1.6850   1.7016   1.7267   1.7277
  1.7612   1.7854   1.7933   1.8462   1.8832   1.9211   1.9511   1.9593
  1.9836   2.0453   2.1075   2.1223   2.1762   2.1891   2.2058   2.2089
  2.2645   2.2793   2.3622   2.4238   2.4680   2.4823   2.5237   2.5487
  2.5683   2.5768   2.6325   2.6631   2.6667   2.6977   2.7013   2.7236
  2.7350   2.7508   2.7763   2.7947   2.8160   2.8394   2.8490   2.8940
  2.9079   2.9206   2.9631   2.9733   3.0222   3.0358   3.0439   3.0580
  3.0946   3.1117   3.1138   3.1431   3.1486   3.1682   3.1786   3.2112
  3.2169   3.2545   3.2678   3.2765   3.2820   3.2973   3.3220   3.3296
  3.3512   3.3668   3.3713   3.3942   3.3966   3.4073   3.4279   3.4341
  3.4374   3.4520   3.4856   3.4949   3.5139   3.5296   3.5437   3.5741
  3.5827   3.6008   3.6202   3.6234   3.6407   3.6609   3.6745   3.6875
  3.6997   3.7163   3.7235   3.7537   3.7582   3.7690   3.7980   3.8070
  3.8268   3.8337   3.8734   3.8824   3.8923   3.9230   3.9393   3.9582
  3.9621   3.9958   4.0133   4.0209   4.0419   4.0662   4.0997   4.1069
  4.1255   4.1417   4.1596   4.1872   4.2193   4.2230   4.2513   4.2602
  4.2673   4.2882   4.3285   4.3352   4.3472   4.3592   4.3858   4.4034
  4.4159   4.4271   4.4406   4.4709   4.4787   4.5071   4.5500   4.5934
  4.6016   4.6121   4.6320   4.6679   4.7135   4.7355   4.7632   4.7737
  4.8059   4.8164   4.8450   4.8810   4.9029   4.9312   5.0475   5.0818
  5.1022   5.1731   5.1797   5.1945   5.2114   5.2556   5.2859   5.3186
  5.3663   5.4068   5.4158   5.4474   5.4730   5.5135   5.5473   5.5625
  5.6077   5.6207   5.6253   5.6531   5.7019   5.8098   5.8341   5.8677
  5.9169   5.9683   6.0272   6.1246   6.2277   6.2384   6.2810   6.3486
  6.4177   6.5451   9.2287  11.4789  12.8669  13.6701  14.1950  14.4250
 --------------------------------------------------------------
 
          Ground-State Mulliken Net Atomic Charges

     Atom                 Charge (a.u.)
  ----------------------------------------
      1 C                     0.023489
      2 C                    -0.270265
      3 C                     0.045905
      4 H                     0.179658
      5 C                    -0.246893
      6 S                    -0.005959
      7 C                    -0.271107
      8 H                     0.101750
      9 H                     0.107415
     10 H                     0.106188
     11 C                    -0.371666
     12 H                     0.128594
     13 H                     0.156179
     14 H                     0.121914
     15 H                     0.194795
  ----------------------------------------
  Sum of atomic charges =     0.000000

 -----------------------------------------------------------------
                    Cartesian Multipole Moments
 -----------------------------------------------------------------
    Charge (ESU x 10^10)
                -0.0000
    Dipole Moment (Debye)
         X       1.2087      Y       0.0125      Z       0.9902
       Tot       1.5625
    Quadrupole Moments (Debye-Ang)
        XX     -52.0780     XY       3.0099     YY     -44.7851
        XZ       0.4137     YZ       1.2456     ZZ     -48.5759
    Octopole Moments (Debye-Ang^2)
       XXX     -52.5216    XXY     -21.7662    XYY      -7.8523
       YYY     -69.1717    XXZ      -2.8001    XYZ      -2.8307
       YYZ      -6.0653    XZZ     -15.2666    YZZ     -19.9556
       ZZZ       2.5886
    Hexadecapole Moments (Debye-Ang^3)
      XXXX    -219.9574   XXXY    -135.7405   XXYY    -147.1059
      XYYY    -129.5089   YYYY    -681.3404   XXXZ     -47.7911
      XXYZ     -29.5537   XYYZ     -17.4639   YYYZ     -88.1117
      XXZZ    -120.2586   XYZZ     -38.2603   YYZZ    -194.4041
      XZZZ     -52.9412   YZZZ     -90.1074   ZZZZ    -481.5143
 -----------------------------------------------------------------
 Total job time:  159.24s(wall), 158.51s(cpu) 
 Sun Jul 10 09:58:48 2022

        *************************************************************
        *                                                           *
        *  Thank you very much for using Q-Chem.  Have a nice day.  *
        *                                                           *
        *************************************************************


remove work dirs ./qchem2169112.0 -- ./qchem2169112.-1
rm -rf ./qchem2169112
