You are running Q-Chem version: 5.4.0

#
# job setting
#
local host:  exp-1-06
current dir: /expanse/lustre/scratch/theleonzhang/temp_project/Hydrogenated_Impropers_Test
input file:  Methylthiophene_Phi_0_Theta_350_Methylthiophene_Hydrogenated_Improper_Alternate.qcin
output file: 
nprocs     : 0
nthreads   : 1
#
# qchem installation setting
#
QC:          /cm/shared/apps/spack/cpu/opt/spack/linux-centos8-zen2/gcc-10.2.0/qchem-5.4-akfmr7b3t57bfs6qan3padb2wnb2i7cl
QCAUX:       /cm/shared/apps/spack/cpu/opt/spack/linux-centos8-zen2/gcc-10.2.0/qchem-5.4-akfmr7b3t57bfs6qan3padb2wnb2i7cl/qcaux
QCPROG:      /cm/shared/apps/spack/cpu/opt/spack/linux-centos8-zen2/gcc-10.2.0/qchem-5.4-akfmr7b3t57bfs6qan3padb2wnb2i7cl/exe/qcprog.exe_s
QCPROG_S:    /cm/shared/apps/spack/cpu/opt/spack/linux-centos8-zen2/gcc-10.2.0/qchem-5.4-akfmr7b3t57bfs6qan3padb2wnb2i7cl/exe/qcprog.exe_s
PARALLEL:    -DSERIAL
QCMPI:       mpich
#
# qchem directory setting
#
qcrun:       qchem1959188
QCSCRATCH:   .
QCLOCALSCR:  
QCTMPDIR:    .
QCFILEPREF:  ./qchem1959188
QCSAVEDIR:   
workdirs:    ./qchem1959188
workdir0:    ./qchem1959188
partmpdirs =  
#
# parallel setting
#
QCRSH:           ssh
QCMPI:           mpich
QCMPIRUN:        /cm/shared/apps/spack/cpu/opt/spack/linux-centos8-zen2/gcc-10.2.0/qchem-5.4-akfmr7b3t57bfs6qan3padb2wnb2i7cl/bin/mpi/mpirun_qchem
QCMACHINEFILE:   ./qchem1959188/hostfile

#
# env setting
#
exported envs:   QC QCAUX QCSCRATCH QCRUNNAME QCFILEPREF QCPROG QCPROG_S GUIFILE

Running Job 1 of 1 Methylthiophene_Phi_0_Theta_350_Methylthiophene_Hydrogenated_Improper_Alternate.qcin
qchem Methylthiophene_Phi_0_Theta_350_Methylthiophene_Hydrogenated_Improper_Alternate.qcin_1959188.0 ./qchem1959188/ 0
/cm/shared/apps/spack/cpu/opt/spack/linux-centos8-zen2/gcc-10.2.0/qchem-5.4-akfmr7b3t57bfs6qan3padb2wnb2i7cl/exe/qcprog.exe_s Methylthiophene_Phi_0_Theta_350_Methylthiophene_Hydrogenated_Improper_Alternate.qcin_1959188.0 ./qchem1959188/
                  Welcome to Q-Chem
     A Quantum Leap Into The Future Of Chemistry


 Q-Chem 5.4, Q-Chem, Inc., Pleasanton, CA (2021)

 License issued to: University of California, San Diego (site)

 E. Epifanovsky,  A. T. B. Gilbert,  Xintian Feng,  Joonho Lee,  Yuezhi Mao,  
 N. Mardirossian,  P. Pokhilko,  A. White,  M. Wormit,  M. P. Coons,  
 A. L. Dempwolff,  Zhengting Gan,  D. Hait,  P. R. Horn,  L. D. Jacobson,  
 I. Kaliman,  J. Kussmann,  A. W. Lange,  Ka Un Lao,  D. S. Levine,  Jie Liu,  
 S. C. McKenzie,  A. F. Morrison,  K. Nanda,  F. Plasser,  D. R. Rehn,  
 M. L. Vidal,  Zhi-Qiang You,  Ying Zhu,  B. Alam,  B. Albrecht,  
 A. Aldossary,  E. Alguire,  J. H. Andersen,  D. Barton,  K. Begam,  A. Behn,  
 Y. A. Bernard,  E. J. Berquist,  H. Burton,  A. Carreras,  K. Carter-Fenk,  
 R. Chakraborty,  A. D. Chien,  K. D. Closser,  V. Cofer-Shabica,  
 S. Dasgupta,  Jia Deng,  M. de Wergifosse,  M. Diedenhofen,  Hainam Do,  
 S. Ehlert,  Po-Tung Fang,  S. Fatehi,  Qingguo Feng,  J. Gayvert,  
 Qinghui Ge,  G. Gidofalvi,  M. Goldey,  J. Gomes,  C. Gonzalez-Espinoza,  
 S. Gulania,  A. Gunina,  M. W. D. Hanson-Heine,  P. H. P. Harbach,  
 A. W. Hauser,  M. F. Herbst,  M. Hernandez Vera,  M. Hodecker,  
 Z. C. Holden,  S. Houck,  Xunkun Huang,  Kerwin Hui,  B. C. Huynh,  
 M. Ivanov,  Hyunjun Ji,  Hanjie Jiang,  B. Kaduk,  S. Kaehler,  
 K. Khistyaev,  Jaehoon Kim,  P. Klunzinger,  Z. Koczor-Benda,  
 Joong Hoon Koh,  D. Kosenkov,  L. Koulias,  T. Kowalczyk,  C. M. Krauter,  
 K. Kue,  A. Kunitsa,  T. Kus,  A. Landau,  K. V. Lawler,  D. Lefrancois,  
 S. Lehtola,  Rain Li,  Yi-Pei Li,  Jiashu Liang,  M. Liebenthal,  
 Hung-Hsuan Lin,  You-Sheng Lin,  Fenglai Liu,  Kuan-Yu Liu,  
 M. Loipersberger,  A. Luenser,  A. Manjanath,  P. Manohar,  E. Mansoor,  
 S. F. Manzer,  Shan-Ping Mao,  A. V. Marenich,  T. Markovich,  S. Mason,  
 S. A. Maurer,  P. F. McLaughlin,  M. F. S. J. Menger,  J.-M. Mewes,  
 S. A. Mewes,  P. Morgante,  J. W. Mullinax,  T. S. Nguyen-Beck,  
 K. J. Oosterbaan,  G. Paran,  Alexander C. Paul,  Suranjan K. Paul,  
 F. Pavosevic,  Zheng Pei,  S. Prager,  E. I. Proynov,  E. Ramos,  B. Rana,  
 A. E. Rask,  A. Rettig,  R. M. Richard,  F. Rob,  E. Rossomme,  T. Scheele,  
 M. Scheurer,  M. Schneider,  N. Sergueev,  S. M. Sharada,  W. Skomorowski,  
 D. W. Small,  C. J. Stein,  Yu-Chuan Su,  E. J. Sundstrom,  Zhen Tao,  
 J. Thirman,  T. Tsuchimochi,  N. M. Tubman,  S. P. Veccham,  O. Vydrov,  
 J. Wenzel,  J. Witte,  A. Yamada,  Kun Yao,  S. Yeganeh,  S. R. Yost,  
 A. Zech,  Igor Ying Zhang,  Xing Zhang,  Yu Zhang,  D. Zuev,  
 A. Aspuru-Guzik,  A. T. Bell,  N. A. Besley,  K. B. Bravaya,  B. R. Brooks,  
 D. Casanova,  Jeng-Da Chai,  S. Coriani,  C. J. Cramer,  
 A. E. DePrince, III,  R. A. DiStasio Jr.,  A. Dreuw,  B. D. Dunietz,  
 T. R. Furlani,  W. A. Goddard III,  S. Grimme,  S. Hammes-Schiffer,  
 T. Head-Gordon,  W. J. Hehre,  Chao-Ping Hsu,  T.-C. Jagau,  Yousung Jung,  
 A. Klamt,  Jing Kong,  D. S. Lambrecht,  WanZhen Liang,  N. J. Mayhall,  
 C. W. McCurdy,  J. B. Neaton,  C. Ochsenfeld,  J. A. Parkhill,  R. Peverati,  
 V. A. Rassolov,  Yihan Shao,  L. V. Slipchenko,  T. Stauch,  R. P. Steele,  
 J. E. Subotnik,  A. J. W. Thom,  A. Tkatchenko,  D. G. Truhlar,  
 T. Van Voorhis,  T. A. Wesolowski,  K. B. Whaley,  H. L. Woodcock III,  
 P. M. Zimmerman,  S. Faraji,  P. M. W. Gill,  M. Head-Gordon,  
 J. M. Herbert,  A. I. Krylov

 Contributors to earlier versions of Q-Chem not listed above: 
 R. D. Adamson,  B. Austin,  R. Baer,  J. Baker,  G. J. O. Beran,  
 K. Brandhorst,  S. T. Brown,  E. F. C. Byrd,  A. K. Chakraborty,  
 G. K. L. Chan,  Chun-Min Chang,  Yunqing Chen,  C.-L. Cheng,  
 Siu Hung Chien,  D. M. Chipman,  D. L. Crittenden,  H. Dachsel,  
 R. J. Doerksen,  A. D. Dutoi,  R. G. Edgar,  J. Fosso-Tande,  
 L. Fusti-Molnar,  D. Ghosh,  A. Ghysels,  A. Golubeva-Zadorozhnaya,  
 J. Gonthier,  M. S. Gordon,  S. R. Gwaltney,  G. Hawkins,  J. E. Herr,  
 A. Heyden,  S. Hirata,  E. G. Hohenstein,  G. Kedziora,  F. J. Keil,  
 C. Kelley,  Jihan Kim,  R. A. King,  R. Z. Khaliullin,  P. P. Korambath,  
 W. Kurlancheek,  A. Laurent,  A. M. Lee,  M. S. Lee,  S. V. Levchenko,  
 Ching Yeh Lin,  D. Liotard,  E. Livshits,  R. C. Lochan,  I. Lotan,  
 L. A. Martinez-Martinez,  P. E. Maslen,  N. Nair,  D. P. O'Neill,  
 D. Neuhauser,  E. Neuscamman,  C. M. Oana,  R. Olivares-Amaya,  R. Olson,  
 T. M. Perrine,  B. Peters,  P. A. Pieniazek,  A. Prociuk,  Y. M. Rhee,  
 J. Ritchie,  M. A. Rohrdanz,  E. Rosta,  N. J. Russ,  H. F. Schaefer III,  
 M. W. Schmidt,  N. E. Schultz,  S. Sharma,  N. Shenvi,  C. D. Sherrill,  
 A. C. Simmonett,  A. Sodt,  T. Stein,  D. Stuck,  K. S. Thanthiriwatte,  
 V. Vanovschi,  L. Vogt,  Tao Wang,  A. Warshel,  M. A. Watson,  
 C. F. Williams,  Q. Wu,  X. Xu,  Jun Yang,  W. Zhang,  Yan Zhao

 Please cite Q-Chem as follows:
 Y. Shao et al., Mol. Phys. 113, 184-215 (2015)
 DOI: 10.1080/00268976.2014.952696

 Q-Chem 5.4.0 for Intel X86 EM64T Linux

 Parts of Q-Chem use Armadillo 9.800.1 (Horizon Scraper).
 http://arma.sourceforge.net/

 Q-Chem begins on Sun Jul 10 10:44:47 2022  

 Host: 
0

     Scratch files written to ./qchem1959188//
 May1621 |scratch|qcdevops|jenkins|workspace|build_RNUM    
 Processing $rem in /cm/shared/apps/spack/cpu/opt/spack/linux-centos8-zen2/gcc-10.2.0/qchem-5.4-akfmr7b3t57bfs6qan3padb2wnb2i7cl/config/preferences:
 Processing $rem in /home/theleonzhang/.qchemrc:
 Symmetry turned off for PCM/SM12/SMD calculation
 Core orbitals will be frozen

 Checking the input file for inconsistencies... 	...done.

--------------------------------------------------------------
User input:
--------------------------------------------------------------
$molecule
0 1
C	-0.004896	-0.576309	0.015308
C	-0.004896	0.287291	1.114708
C	-0.004796	1.671191	0.792008
H	-0.004896	-0.081509	2.151408
C	-0.004796	1.891891	-0.597192
S	-0.004896	0.366091	-1.471492
C	-0.004796	2.758991	1.829908
H	-0.004796	2.333291	2.852008
H	-0.897196	3.413291	1.741508
H	0.887604	3.413191	1.741508
C	-0.004896	-2.017009	0.015308
H	1.058704	-2.017209	-0.172092
H	-0.147096	-2.720809	-0.791492
H	0.159604	-2.535909	0.948008
H	-0.004796	2.841091	-1.146292
$end

$rem
JOBTYPE		SP
EXCHANGE	HF
CORRELATION	pRIMP2
BASIS		cc-pvtz
METHOD		rimp2
AUX_BASIS	rimp2-cc-pvtz
SOLVENT_METHOD	PCM
PURECART	11111
SYMMETRY	false
MEM_TOTAL	110000
SCF_CONVERGENCE = 6
THRESH=10
$end



$solvent
dielectric 4.90
$end
--------------------------------------------------------------
 ----------------------------------------------------------------
             Standard Nuclear Orientation (Angstroms)
    I     Atom           X                Y                Z
 ----------------------------------------------------------------
    1      C      -0.0048960000    -0.5763090000     0.0153080000
    2      C      -0.0048960000     0.2872910000     1.1147080000
    3      C      -0.0047960000     1.6711910000     0.7920080000
    4      H      -0.0048960000    -0.0815090000     2.1514080000
    5      C      -0.0047960000     1.8918910000    -0.5971920000
    6      S      -0.0048960000     0.3660910000    -1.4714920000
    7      C      -0.0047960000     2.7589910000     1.8299080000
    8      H      -0.0047960000     2.3332910000     2.8520080000
    9      H      -0.8971960000     3.4132910000     1.7415080000
   10      H       0.8876040000     3.4131910000     1.7415080000
   11      C      -0.0048960000    -2.0170090000     0.0153080000
   12      H       1.0587040000    -2.0172090000    -0.1720920000
   13      H      -0.1470960000    -2.7208090000    -0.7914920000
   14      H       0.1596040000    -2.5359090000     0.9480080000
   15      H      -0.0047960000     2.8410910000    -1.1462920000
 ----------------------------------------------------------------
 Nuclear Repulsion Energy =         344.40184971 hartrees
 There are       30 alpha and       30 beta electrons

 Q-Chem warning in module forms1/BasisType.C, line 2236:

 You are not using the predefined 5D/6D in this basis set.

 Requested basis set is cc-pVTZ
 There are 120 shells and 326 basis functions

 Total QAlloc Memory Limit 110000 MB
 Mega-Array Size       188 MB
 MEM_STATIC part       192 MB
 Discretize the solute cavity surface with Lebedev spheres
	Using 110 Lebedev grid points for each H atom
	Using 194 Lebedev grid points for other atoms
	Atomic van der Waals radii will be scaled by 1.20
 Remove points where switching function is < 1.0e-08
 Keep 1063 surface tesserae and discard 1175 interior tesserae
 Molecular Surface Area = 159.624 Angst**2

                       Distance Matrix (Angstroms)
             C (  1)   C (  2)   C (  3)   H (  4)   C (  5)   S (  6)
   C (  2)  1.398029
   C (  3)  2.377923  1.421026
   H (  4)  2.192658  1.100346  2.218091
   C (  5)  2.543063  2.346347  1.406622  3.383653
   S (  6)  1.760310  2.587400  2.612799  3.650445  1.758541
   C (  7)  3.796972  2.573094  1.503511  2.858636  2.577339  4.077403
   H (  8)  4.063575  2.684088  2.163788  2.514379  3.477329  4.750003
   H (  9)  4.437665  3.310733  2.175509  3.630130  2.929258  4.517189
   H ( 10)  4.437616  3.310693  2.175429  3.630083  2.929206  4.517161
   C ( 11)  1.440700  2.553131  3.769096  2.882548  3.956596  2.808868
   H ( 12)  1.800710  2.845667  3.957880  3.205750  4.073427  2.915442
   H ( 13)  2.295654  3.564055  4.670908  3.955602  4.618983  3.164107
   H ( 14)  2.176470  2.832897  4.213200  2.738487  4.692556  3.781884
   H ( 15)  3.609423  3.410867  2.263995  4.406406  1.096582  2.496273
             C (  7)   H (  8)   H (  9)   H ( 10)   C ( 11)   H ( 12)
   H (  8)  1.107208
   H (  9)  1.110090  1.787733
   H ( 10)  1.110032  1.787672  1.784800
   C ( 11)  5.109105  5.193455  5.767506  5.767443
   H ( 12)  5.286882  5.403986  6.080932  5.760242  1.079983
   H ( 13)  6.076199  6.232116  6.678766  6.716595  1.080038  1.527306
   H ( 14)  5.370358  5.230808  6.094214  6.045777  1.079929  1.527107
   H ( 15)  2.977332  4.030417  3.076228  3.076210  4.995043  5.067857
             H ( 13)   H ( 14)
   H ( 14)  1.775982
   H ( 15)  5.575021  5.772803
 
 Requested basis set is rimp2-cc-pVTZ
 There are 250 shells and 848 basis functions
 A cutoff of  1.0D-10 yielded   6163 shell pairs
 There are     45125 function pairs (     58024 Cartesian)
 Smallest overlap matrix eigenvalue = 7.97E-05

 Scale SEOQF with 1.000000e+00/1.000000e-01/1.000000e-01

 Standard Electronic Orientation quadrupole field applied
 Nucleus-field energy     =     0.0000000033 hartrees
 Guess from superposition of atomic densities
 Warning:  Energy on first SCF cycle will be non-variational
 SAD guess density has 60.000000 electrons

 -----------------------------------------------------------------------
  General SCF calculation program by
  Eric Jon Sundstrom, Paul Horn, Yuezhi Mao, Dmitri Zuev, Alec White,
  David Stuck, Shaama M.S., Shane Yost, Joonho Lee, David Small,
  Daniel Levine, Susi Lehtola, Hugh Burton, Evgeny Epifanovsky,
  Bang C. Huynh
 -----------------------------------------------------------------------
 Hartree-Fock
 A restricted SCF calculation will be
 performed using DIIS
 SCF converges when DIIS error is below 1.0e-06
 ---------------------------------------
  Cycle       Energy         DIIS error
 ---------------------------------------
    1    -632.0955235343      2.91e-02  
    2    -629.3443495249      1.95e-03  
    3    -629.4148287366      7.10e-04  
    4    -629.4226304661      3.66e-04  
    5    -629.4249572319      6.21e-05  
    6    -629.4250917927      2.59e-05  
    7    -629.4251243600      1.12e-05  
    8    -629.4251333039      5.12e-06  
    9    -629.4251347371      1.68e-06  
   10    -629.4251349164      6.96e-07  Convergence criterion met
 ---------------------------------------
 SCF time:   CPU 144.45s  wall 146.00s 

************** Final PCM Free Energy Summary **************
 G_electrostatic  =      -0.00590911 hartree =      -3.70801995 kcal/mol
 G_cavitation     =       0.00000000 hartree =       0.00000000 kcal/mol
 G_dispersion     =       0.00000000 hartree =       0.00000000 kcal/mol
 G_repulsion      =       0.00000000 hartree =       0.00000000 kcal/mol
 --------------------------------------------------
 Non-electrostatic Free Energy =       0.00000000 hartree =       0.00000000 kcal/mol
 Total                         =      -0.00590911 hartree =      -3.70801995 kcal/mol
 --------------------------------------------------
 SCF Energy (H0 + V/2)                       =    -629.42513492 
 Solute Internal Energy (H0)                 =    -629.41922581 
 Total Free Energy (H0 + V/2 + non-elec)     =    -629.42513492 hartree
                                             = -394970.23344550 kcal/mol
***********************************************************

 SCF   energy in the final basis set =     -629.4251349164
 Total energy in the final basis set =     -629.4251349164


 --------------------------------------------------------------
  Generalized many-body perturbation theory program
  by Joonho Lee, Fazle Rob, Xintian Feng, Evgeny Epifanovsky

 No regularization used 
 (reg. param. = 0.0000e+00)
  (P|Q)^-1/2 Time:  CPU 0.49 s  wall 0.49 s

 In RI-MP2 calculation: 
 # of frozen core orbitals: 11

 Components of the RIMP2 correlation energy:
        aaaa    correlation energy =        -0.1450517719 a.u.
        abab    correlation energy =        -0.8849262592 a.u.
        bbbb    correlation energy =        -0.1450517719 a.u.
        non-Brillouin singles      =        -0.0000000000 a.u.
        total same-spin energy     =        -0.2901035439 a.u.
        total opposite-spin energy =        -0.8849262592 a.u.

 Total  RIMP2   correlation energy =        -1.1750298031 a.u.
        RIMP2         total energy =      -630.6001647195 a.u.

 RI-MP2 Energy Time:  CPU 11.55 s  wall 11.63 s
 
 --------------------------------------------------------------
 
                    Orbital Energies (a.u.)
 --------------------------------------------------------------
 
 Alpha MOs
 -- Occupied --
-91.9776 -11.2860 -11.2489 -11.2468 -11.2264 -11.2235 -11.2225  -8.9775
 -6.6585  -6.6580  -6.6573  -1.1602  -1.0564  -0.9972  -0.9425  -0.8826
 -0.7443  -0.7185  -0.6478  -0.5897  -0.5756  -0.5697  -0.5513  -0.5466
 -0.5077  -0.4935  -0.4656  -0.4562  -0.3388  -0.2888
 -- Virtual --
  0.1141   0.1447   0.1475   0.1749   0.1886   0.1983   0.2113   0.2179
  0.2197   0.2407   0.2464   0.2577   0.2961   0.3289   0.3426   0.3537
  0.3867   0.3918   0.4050   0.4224   0.4298   0.4597   0.4705   0.4912
  0.5007   0.5129   0.5236   0.5323   0.5440   0.5576   0.5761   0.5926
  0.5978   0.6052   0.6194   0.6238   0.6337   0.6388   0.6461   0.6478
  0.6559   0.6731   0.6894   0.7045   0.7167   0.7520   0.7896   0.7903
  0.8166   0.8361   0.8417   0.8568   0.8833   0.8895   0.9015   0.9412
  0.9523   0.9621   0.9866   1.0259   1.0488   1.0518   1.0615   1.0785
  1.0864   1.0968   1.1004   1.1063   1.1467   1.1641   1.1749   1.2065
  1.2363   1.2461   1.2565   1.2705   1.2779   1.2921   1.3068   1.3417
  1.3665   1.3877   1.3974   1.4131   1.4337   1.4372   1.4473   1.4839
  1.5006   1.5063   1.5334   1.5362   1.5428   1.5612   1.5732   1.5953
  1.6015   1.6305   1.6463   1.6783   1.6900   1.7021   1.7334   1.7460
  1.7813   1.7910   1.8035   1.8458   1.8930   1.9118   1.9362   1.9586
  2.0197   2.0630   2.0842   2.1344   2.1826   2.2039   2.2290   2.2631
  2.2927   2.3014   2.3570   2.4185   2.4539   2.4666   2.4901   2.5323
  2.5631   2.5936   2.6507   2.6671   2.6856   2.7092   2.7144   2.7221
  2.7299   2.7588   2.7804   2.7946   2.8172   2.8441   2.8564   2.8612
  2.9160   2.9363   2.9599   2.9692   3.0043   3.0254   3.0469   3.0733
  3.0932   3.1142   3.1202   3.1346   3.1556   3.1582   3.1809   3.1878
  3.2290   3.2369   3.2644   3.2835   3.2975   3.3022   3.3151   3.3290
  3.3418   3.3468   3.3757   3.3947   3.3968   3.4143   3.4243   3.4372
  3.4521   3.4589   3.4844   3.4882   3.5063   3.5182   3.5259   3.5465
  3.5828   3.5956   3.6173   3.6209   3.6295   3.6508   3.6593   3.6788
  3.6826   3.6971   3.7186   3.7455   3.7506   3.7762   3.7953   3.7966
  3.8144   3.8471   3.8754   3.8829   3.9070   3.9289   3.9398   3.9654
  3.9842   3.9900   4.0214   4.0250   4.0380   4.0529   4.0996   4.1093
  4.1272   4.1388   4.1724   4.2139   4.2239   4.2343   4.2483   4.2689
  4.2962   4.3061   4.3164   4.3269   4.3517   4.3710   4.3888   4.4024
  4.4231   4.4313   4.4356   4.4623   4.4796   4.5334   4.5409   4.5504
  4.5981   4.6144   4.6350   4.6830   4.6986   4.7385   4.7570   4.7849
  4.8097   4.8283   4.8751   4.8964   4.9144   4.9544   5.0928   5.1171
  5.1213   5.1393   5.1516   5.2058   5.2165   5.2656   5.2842   5.3322
  5.3762   5.4087   5.4186   5.4360   5.4690   5.5128   5.5514   5.5686
  5.5835   5.6110   5.6205   5.6562   5.7001   5.8075   5.8204   5.8731
  5.9297   5.9797   6.1328   6.2171   6.2275   6.2532   6.3227   6.4258
  6.4382   6.5855   9.2470  11.3817  12.9552  13.8291  14.1809  14.6390
 --------------------------------------------------------------
 
          Ground-State Mulliken Net Atomic Charges

     Atom                 Charge (a.u.)
  ----------------------------------------
      1 C                     0.063156
      2 C                    -0.304201
      3 C                     0.047351
      4 H                     0.178351
      5 C                    -0.277750
      6 S                    -0.005264
      7 C                    -0.274412
      8 H                     0.101281
      9 H                     0.107288
     10 H                     0.107428
     11 C                    -0.381060
     12 H                     0.142008
     13 H                     0.161838
     14 H                     0.141110
     15 H                     0.192875
  ----------------------------------------
  Sum of atomic charges =     0.000000

 -----------------------------------------------------------------
                    Cartesian Multipole Moments
 -----------------------------------------------------------------
    Charge (ESU x 10^10)
                -0.0000
    Dipole Moment (Debye)
         X       0.7303      Y      -0.7480      Z       1.2886
       Tot       1.6593
    Quadrupole Moments (Debye-Ang)
        XX     -54.4027     XY      -1.5119     YY     -41.6399
        XZ       0.1302     YZ       0.7496     ZZ     -48.6203
    Octopole Moments (Debye-Ang^2)
       XXX      -0.6096    XXY     -31.3234    XYY       2.6564
       YYY     -83.1651    XXZ      -1.9427    XYZ      -0.4401
       YYZ      -5.4615    XZZ      -0.2456    YZZ     -26.2494
       ZZZ       0.9921
    Hexadecapole Moments (Debye-Ang^3)
      XXXX     -77.7025   XXXY       3.4174   XXYY    -163.9348
      XYYY      -3.0060   YYYY    -808.5844   XXXZ      -0.2906
      XXYZ     -30.1801   XYYZ       1.2906   YYYZ     -99.1140
      XXZZ    -102.3313   XYZZ       0.9193   YYZZ    -210.0941
      XZZZ       0.2222   YZZZ    -101.8364   ZZZZ    -484.4757
 -----------------------------------------------------------------
 Total job time:  158.65s(wall), 156.39s(cpu) 
 Sun Jul 10 10:47:25 2022

        *************************************************************
        *                                                           *
        *  Thank you very much for using Q-Chem.  Have a nice day.  *
        *                                                           *
        *************************************************************


remove work dirs ./qchem1959188.0 -- ./qchem1959188.-1
rm -rf ./qchem1959188
You are running Q-Chem version: 5.4.0

#
# job setting
#
local host:  exp-12-30
current dir: /expanse/lustre/scratch/theleonzhang/temp_project/Hydrogenated_Impropers_Test
input file:  Methylthiophene_Phi_0_Theta_350_Methylthiophene_Hydrogenated_Improper_Alternate.qcin
output file: 
nprocs     : 0
nthreads   : 1
#
# qchem installation setting
#
QC:          /cm/shared/apps/spack/cpu/opt/spack/linux-centos8-zen2/gcc-10.2.0/qchem-5.4-akfmr7b3t57bfs6qan3padb2wnb2i7cl
QCAUX:       /cm/shared/apps/spack/cpu/opt/spack/linux-centos8-zen2/gcc-10.2.0/qchem-5.4-akfmr7b3t57bfs6qan3padb2wnb2i7cl/qcaux
QCPROG:      /cm/shared/apps/spack/cpu/opt/spack/linux-centos8-zen2/gcc-10.2.0/qchem-5.4-akfmr7b3t57bfs6qan3padb2wnb2i7cl/exe/qcprog.exe_s
QCPROG_S:    /cm/shared/apps/spack/cpu/opt/spack/linux-centos8-zen2/gcc-10.2.0/qchem-5.4-akfmr7b3t57bfs6qan3padb2wnb2i7cl/exe/qcprog.exe_s
PARALLEL:    -DSERIAL
QCMPI:       mpich
#
# qchem directory setting
#
qcrun:       qchem891185
QCSCRATCH:   .
QCLOCALSCR:  
QCTMPDIR:    .
QCFILEPREF:  ./qchem891185
QCSAVEDIR:   
workdirs:    ./qchem891185
workdir0:    ./qchem891185
partmpdirs =  
#
# parallel setting
#
QCRSH:           ssh
QCMPI:           mpich
QCMPIRUN:        /cm/shared/apps/spack/cpu/opt/spack/linux-centos8-zen2/gcc-10.2.0/qchem-5.4-akfmr7b3t57bfs6qan3padb2wnb2i7cl/bin/mpi/mpirun_qchem
QCMACHINEFILE:   ./qchem891185/hostfile

#
# env setting
#
exported envs:   QC QCAUX QCSCRATCH QCRUNNAME QCFILEPREF QCPROG QCPROG_S GUIFILE

Running Job 1 of 1 Methylthiophene_Phi_0_Theta_350_Methylthiophene_Hydrogenated_Improper_Alternate.qcin
qchem Methylthiophene_Phi_0_Theta_350_Methylthiophene_Hydrogenated_Improper_Alternate.qcin_891185.0 ./qchem891185/ 0
/cm/shared/apps/spack/cpu/opt/spack/linux-centos8-zen2/gcc-10.2.0/qchem-5.4-akfmr7b3t57bfs6qan3padb2wnb2i7cl/exe/qcprog.exe_s Methylthiophene_Phi_0_Theta_350_Methylthiophene_Hydrogenated_Improper_Alternate.qcin_891185.0 ./qchem891185/
                  Welcome to Q-Chem
     A Quantum Leap Into The Future Of Chemistry


 Q-Chem 5.4, Q-Chem, Inc., Pleasanton, CA (2021)

 License issued to: University of California, San Diego (site)

 E. Epifanovsky,  A. T. B. Gilbert,  Xintian Feng,  Joonho Lee,  Yuezhi Mao,  
 N. Mardirossian,  P. Pokhilko,  A. White,  M. Wormit,  M. P. Coons,  
 A. L. Dempwolff,  Zhengting Gan,  D. Hait,  P. R. Horn,  L. D. Jacobson,  
 I. Kaliman,  J. Kussmann,  A. W. Lange,  Ka Un Lao,  D. S. Levine,  Jie Liu,  
 S. C. McKenzie,  A. F. Morrison,  K. Nanda,  F. Plasser,  D. R. Rehn,  
 M. L. Vidal,  Zhi-Qiang You,  Ying Zhu,  B. Alam,  B. Albrecht,  
 A. Aldossary,  E. Alguire,  J. H. Andersen,  D. Barton,  K. Begam,  A. Behn,  
 Y. A. Bernard,  E. J. Berquist,  H. Burton,  A. Carreras,  K. Carter-Fenk,  
 R. Chakraborty,  A. D. Chien,  K. D. Closser,  V. Cofer-Shabica,  
 S. Dasgupta,  Jia Deng,  M. de Wergifosse,  M. Diedenhofen,  Hainam Do,  
 S. Ehlert,  Po-Tung Fang,  S. Fatehi,  Qingguo Feng,  J. Gayvert,  
 Qinghui Ge,  G. Gidofalvi,  M. Goldey,  J. Gomes,  C. Gonzalez-Espinoza,  
 S. Gulania,  A. Gunina,  M. W. D. Hanson-Heine,  P. H. P. Harbach,  
 A. W. Hauser,  M. F. Herbst,  M. Hernandez Vera,  M. Hodecker,  
 Z. C. Holden,  S. Houck,  Xunkun Huang,  Kerwin Hui,  B. C. Huynh,  
 M. Ivanov,  Hyunjun Ji,  Hanjie Jiang,  B. Kaduk,  S. Kaehler,  
 K. Khistyaev,  Jaehoon Kim,  P. Klunzinger,  Z. Koczor-Benda,  
 Joong Hoon Koh,  D. Kosenkov,  L. Koulias,  T. Kowalczyk,  C. M. Krauter,  
 K. Kue,  A. Kunitsa,  T. Kus,  A. Landau,  K. V. Lawler,  D. Lefrancois,  
 S. Lehtola,  Rain Li,  Yi-Pei Li,  Jiashu Liang,  M. Liebenthal,  
 Hung-Hsuan Lin,  You-Sheng Lin,  Fenglai Liu,  Kuan-Yu Liu,  
 M. Loipersberger,  A. Luenser,  A. Manjanath,  P. Manohar,  E. Mansoor,  
 S. F. Manzer,  Shan-Ping Mao,  A. V. Marenich,  T. Markovich,  S. Mason,  
 S. A. Maurer,  P. F. McLaughlin,  M. F. S. J. Menger,  J.-M. Mewes,  
 S. A. Mewes,  P. Morgante,  J. W. Mullinax,  T. S. Nguyen-Beck,  
 K. J. Oosterbaan,  G. Paran,  Alexander C. Paul,  Suranjan K. Paul,  
 F. Pavosevic,  Zheng Pei,  S. Prager,  E. I. Proynov,  E. Ramos,  B. Rana,  
 A. E. Rask,  A. Rettig,  R. M. Richard,  F. Rob,  E. Rossomme,  T. Scheele,  
 M. Scheurer,  M. Schneider,  N. Sergueev,  S. M. Sharada,  W. Skomorowski,  
 D. W. Small,  C. J. Stein,  Yu-Chuan Su,  E. J. Sundstrom,  Zhen Tao,  
 J. Thirman,  T. Tsuchimochi,  N. M. Tubman,  S. P. Veccham,  O. Vydrov,  
 J. Wenzel,  J. Witte,  A. Yamada,  Kun Yao,  S. Yeganeh,  S. R. Yost,  
 A. Zech,  Igor Ying Zhang,  Xing Zhang,  Yu Zhang,  D. Zuev,  
 A. Aspuru-Guzik,  A. T. Bell,  N. A. Besley,  K. B. Bravaya,  B. R. Brooks,  
 D. Casanova,  Jeng-Da Chai,  S. Coriani,  C. J. Cramer,  
 A. E. DePrince, III,  R. A. DiStasio Jr.,  A. Dreuw,  B. D. Dunietz,  
 T. R. Furlani,  W. A. Goddard III,  S. Grimme,  S. Hammes-Schiffer,  
 T. Head-Gordon,  W. J. Hehre,  Chao-Ping Hsu,  T.-C. Jagau,  Yousung Jung,  
 A. Klamt,  Jing Kong,  D. S. Lambrecht,  WanZhen Liang,  N. J. Mayhall,  
 C. W. McCurdy,  J. B. Neaton,  C. Ochsenfeld,  J. A. Parkhill,  R. Peverati,  
 V. A. Rassolov,  Yihan Shao,  L. V. Slipchenko,  T. Stauch,  R. P. Steele,  
 J. E. Subotnik,  A. J. W. Thom,  A. Tkatchenko,  D. G. Truhlar,  
 T. Van Voorhis,  T. A. Wesolowski,  K. B. Whaley,  H. L. Woodcock III,  
 P. M. Zimmerman,  S. Faraji,  P. M. W. Gill,  M. Head-Gordon,  
 J. M. Herbert,  A. I. Krylov

 Contributors to earlier versions of Q-Chem not listed above: 
 R. D. Adamson,  B. Austin,  R. Baer,  J. Baker,  G. J. O. Beran,  
 K. Brandhorst,  S. T. Brown,  E. F. C. Byrd,  A. K. Chakraborty,  
 G. K. L. Chan,  Chun-Min Chang,  Yunqing Chen,  C.-L. Cheng,  
 Siu Hung Chien,  D. M. Chipman,  D. L. Crittenden,  H. Dachsel,  
 R. J. Doerksen,  A. D. Dutoi,  R. G. Edgar,  J. Fosso-Tande,  
 L. Fusti-Molnar,  D. Ghosh,  A. Ghysels,  A. Golubeva-Zadorozhnaya,  
 J. Gonthier,  M. S. Gordon,  S. R. Gwaltney,  G. Hawkins,  J. E. Herr,  
 A. Heyden,  S. Hirata,  E. G. Hohenstein,  G. Kedziora,  F. J. Keil,  
 C. Kelley,  Jihan Kim,  R. A. King,  R. Z. Khaliullin,  P. P. Korambath,  
 W. Kurlancheek,  A. Laurent,  A. M. Lee,  M. S. Lee,  S. V. Levchenko,  
 Ching Yeh Lin,  D. Liotard,  E. Livshits,  R. C. Lochan,  I. Lotan,  
 L. A. Martinez-Martinez,  P. E. Maslen,  N. Nair,  D. P. O'Neill,  
 D. Neuhauser,  E. Neuscamman,  C. M. Oana,  R. Olivares-Amaya,  R. Olson,  
 T. M. Perrine,  B. Peters,  P. A. Pieniazek,  A. Prociuk,  Y. M. Rhee,  
 J. Ritchie,  M. A. Rohrdanz,  E. Rosta,  N. J. Russ,  H. F. Schaefer III,  
 M. W. Schmidt,  N. E. Schultz,  S. Sharma,  N. Shenvi,  C. D. Sherrill,  
 A. C. Simmonett,  A. Sodt,  T. Stein,  D. Stuck,  K. S. Thanthiriwatte,  
 V. Vanovschi,  L. Vogt,  Tao Wang,  A. Warshel,  M. A. Watson,  
 C. F. Williams,  Q. Wu,  X. Xu,  Jun Yang,  W. Zhang,  Yan Zhao

 Please cite Q-Chem as follows:
 Y. Shao et al., Mol. Phys. 113, 184-215 (2015)
 DOI: 10.1080/00268976.2014.952696

 Q-Chem 5.4.0 for Intel X86 EM64T Linux

 Parts of Q-Chem use Armadillo 9.800.1 (Horizon Scraper).
 http://arma.sourceforge.net/

 Q-Chem begins on Sun Jul 10 11:12:55 2022  

 Host: 
0

     Scratch files written to ./qchem891185//
 May1621 |scratch|qcdevops|jenkins|workspace|build_RNUM    
 Processing $rem in /cm/shared/apps/spack/cpu/opt/spack/linux-centos8-zen2/gcc-10.2.0/qchem-5.4-akfmr7b3t57bfs6qan3padb2wnb2i7cl/config/preferences:
 Processing $rem in /home/theleonzhang/.qchemrc:
 Symmetry turned off for PCM/SM12/SMD calculation
 Core orbitals will be frozen

 Checking the input file for inconsistencies... 	...done.

--------------------------------------------------------------
User input:
--------------------------------------------------------------
$molecule
0 1
C	-0.004896	-0.576309	0.015308
C	-0.004896	0.287291	1.114708
C	-0.004796	1.671191	0.792008
H	-0.004896	-0.081509	2.151408
C	-0.004796	1.891891	-0.597192
S	-0.004896	0.366091	-1.471492
C	-0.004796	2.758991	1.829908
H	-0.004796	2.333291	2.852008
H	-0.897196	3.413291	1.741508
H	0.887604	3.413191	1.741508
C	-0.004896	-2.017009	0.015308
H	1.058704	-2.017209	-0.172092
H	-0.147096	-2.720809	-0.791492
H	0.159604	-2.535909	0.948008
H	-0.004796	2.841091	-1.146292
$end

$rem
JOBTYPE		SP
EXCHANGE	HF
CORRELATION	pRIMP2
BASIS		cc-pvtz
METHOD		rimp2
AUX_BASIS	rimp2-cc-pvtz
SOLVENT_METHOD	PCM
PURECART	11111
SYMMETRY	false
MEM_TOTAL	110000
SCF_CONVERGENCE = 6
THRESH=10
$end



$solvent
dielectric 4.90
$end
--------------------------------------------------------------
 ----------------------------------------------------------------
             Standard Nuclear Orientation (Angstroms)
    I     Atom           X                Y                Z
 ----------------------------------------------------------------
    1      C      -0.0048960000    -0.5763090000     0.0153080000
    2      C      -0.0048960000     0.2872910000     1.1147080000
    3      C      -0.0047960000     1.6711910000     0.7920080000
    4      H      -0.0048960000    -0.0815090000     2.1514080000
    5      C      -0.0047960000     1.8918910000    -0.5971920000
    6      S      -0.0048960000     0.3660910000    -1.4714920000
    7      C      -0.0047960000     2.7589910000     1.8299080000
    8      H      -0.0047960000     2.3332910000     2.8520080000
    9      H      -0.8971960000     3.4132910000     1.7415080000
   10      H       0.8876040000     3.4131910000     1.7415080000
   11      C      -0.0048960000    -2.0170090000     0.0153080000
   12      H       1.0587040000    -2.0172090000    -0.1720920000
   13      H      -0.1470960000    -2.7208090000    -0.7914920000
   14      H       0.1596040000    -2.5359090000     0.9480080000
   15      H      -0.0047960000     2.8410910000    -1.1462920000
 ----------------------------------------------------------------
 Nuclear Repulsion Energy =         344.40184971 hartrees
 There are       30 alpha and       30 beta electrons

 Q-Chem warning in module forms1/BasisType.C, line 2236:

 You are not using the predefined 5D/6D in this basis set.

 Requested basis set is cc-pVTZ
 There are 120 shells and 326 basis functions

 Total QAlloc Memory Limit 110000 MB
 Mega-Array Size       188 MB
 MEM_STATIC part       192 MB
 Discretize the solute cavity surface with Lebedev spheres
	Using 110 Lebedev grid points for each H atom
	Using 194 Lebedev grid points for other atoms
	Atomic van der Waals radii will be scaled by 1.20
 Remove points where switching function is < 1.0e-08
 Keep 1063 surface tesserae and discard 1175 interior tesserae
 Molecular Surface Area = 159.624 Angst**2

                       Distance Matrix (Angstroms)
             C (  1)   C (  2)   C (  3)   H (  4)   C (  5)   S (  6)
   C (  2)  1.398029
   C (  3)  2.377923  1.421026
   H (  4)  2.192658  1.100346  2.218091
   C (  5)  2.543063  2.346347  1.406622  3.383653
   S (  6)  1.760310  2.587400  2.612799  3.650445  1.758541
   C (  7)  3.796972  2.573094  1.503511  2.858636  2.577339  4.077403
   H (  8)  4.063575  2.684088  2.163788  2.514379  3.477329  4.750003
   H (  9)  4.437665  3.310733  2.175509  3.630130  2.929258  4.517189
   H ( 10)  4.437616  3.310693  2.175429  3.630083  2.929206  4.517161
   C ( 11)  1.440700  2.553131  3.769096  2.882548  3.956596  2.808868
   H ( 12)  1.800710  2.845667  3.957880  3.205750  4.073427  2.915442
   H ( 13)  2.295654  3.564055  4.670908  3.955602  4.618983  3.164107
   H ( 14)  2.176470  2.832897  4.213200  2.738487  4.692556  3.781884
   H ( 15)  3.609423  3.410867  2.263995  4.406406  1.096582  2.496273
             C (  7)   H (  8)   H (  9)   H ( 10)   C ( 11)   H ( 12)
   H (  8)  1.107208
   H (  9)  1.110090  1.787733
   H ( 10)  1.110032  1.787672  1.784800
   C ( 11)  5.109105  5.193455  5.767506  5.767443
   H ( 12)  5.286882  5.403986  6.080932  5.760242  1.079983
   H ( 13)  6.076199  6.232116  6.678766  6.716595  1.080038  1.527306
   H ( 14)  5.370358  5.230808  6.094214  6.045777  1.079929  1.527107
   H ( 15)  2.977332  4.030417  3.076228  3.076210  4.995043  5.067857
             H ( 13)   H ( 14)
   H ( 14)  1.775982
   H ( 15)  5.575021  5.772803
 
 Requested basis set is rimp2-cc-pVTZ
 There are 250 shells and 848 basis functions
 A cutoff of  1.0D-10 yielded   6163 shell pairs
 There are     45125 function pairs (     58024 Cartesian)
 Smallest overlap matrix eigenvalue = 7.97E-05

 Scale SEOQF with 1.000000e+00/1.000000e-01/1.000000e-01

 Standard Electronic Orientation quadrupole field applied
 Nucleus-field energy     =     0.0000000033 hartrees
 Guess from superposition of atomic densities
 Warning:  Energy on first SCF cycle will be non-variational
 SAD guess density has 60.000000 electrons

 -----------------------------------------------------------------------
  General SCF calculation program by
  Eric Jon Sundstrom, Paul Horn, Yuezhi Mao, Dmitri Zuev, Alec White,
  David Stuck, Shaama M.S., Shane Yost, Joonho Lee, David Small,
  Daniel Levine, Susi Lehtola, Hugh Burton, Evgeny Epifanovsky,
  Bang C. Huynh
 -----------------------------------------------------------------------
 Hartree-Fock
 A restricted SCF calculation will be
 performed using DIIS
 SCF converges when DIIS error is below 1.0e-06
 ---------------------------------------
  Cycle       Energy         DIIS error
 ---------------------------------------
    1    -632.0955235343      2.91e-02  
    2    -629.3443495249      1.95e-03  
    3    -629.4148287366      7.10e-04  
    4    -629.4226304661      3.66e-04  
    5    -629.4249572319      6.21e-05  
    6    -629.4250917927      2.59e-05  
    7    -629.4251243600      1.12e-05  
    8    -629.4251333039      5.12e-06  
    9    -629.4251347371      1.68e-06  
   10    -629.4251349164      6.96e-07  Convergence criterion met
 ---------------------------------------
 SCF time:   CPU 143.84s  wall 145.00s 

************** Final PCM Free Energy Summary **************
 G_electrostatic  =      -0.00590911 hartree =      -3.70801995 kcal/mol
 G_cavitation     =       0.00000000 hartree =       0.00000000 kcal/mol
 G_dispersion     =       0.00000000 hartree =       0.00000000 kcal/mol
 G_repulsion      =       0.00000000 hartree =       0.00000000 kcal/mol
 --------------------------------------------------
 Non-electrostatic Free Energy =       0.00000000 hartree =       0.00000000 kcal/mol
 Total                         =      -0.00590911 hartree =      -3.70801995 kcal/mol
 --------------------------------------------------
 SCF Energy (H0 + V/2)                       =    -629.42513492 
 Solute Internal Energy (H0)                 =    -629.41922581 
 Total Free Energy (H0 + V/2 + non-elec)     =    -629.42513492 hartree
                                             = -394970.23344550 kcal/mol
***********************************************************

 SCF   energy in the final basis set =     -629.4251349164
 Total energy in the final basis set =     -629.4251349164


 --------------------------------------------------------------
  Generalized many-body perturbation theory program
  by Joonho Lee, Fazle Rob, Xintian Feng, Evgeny Epifanovsky

 No regularization used 
 (reg. param. = 0.0000e+00)
  (P|Q)^-1/2 Time:  CPU 0.48 s  wall 0.48 s

 In RI-MP2 calculation: 
 # of frozen core orbitals: 11

 Components of the RIMP2 correlation energy:
        aaaa    correlation energy =        -0.1450517719 a.u.
        abab    correlation energy =        -0.8849262592 a.u.
        bbbb    correlation energy =        -0.1450517719 a.u.
        non-Brillouin singles      =        -0.0000000000 a.u.
        total same-spin energy     =        -0.2901035439 a.u.
        total opposite-spin energy =        -0.8849262592 a.u.

 Total  RIMP2   correlation energy =        -1.1750298031 a.u.
        RIMP2         total energy =      -630.6001647195 a.u.

 RI-MP2 Energy Time:  CPU 10.98 s  wall 11.02 s
 
 --------------------------------------------------------------
 
                    Orbital Energies (a.u.)
 --------------------------------------------------------------
 
 Alpha MOs
 -- Occupied --
-91.9776 -11.2860 -11.2489 -11.2468 -11.2264 -11.2235 -11.2225  -8.9775
 -6.6585  -6.6580  -6.6573  -1.1602  -1.0564  -0.9972  -0.9425  -0.8826
 -0.7443  -0.7185  -0.6478  -0.5897  -0.5756  -0.5697  -0.5513  -0.5466
 -0.5077  -0.4935  -0.4656  -0.4562  -0.3388  -0.2888
 -- Virtual --
  0.1141   0.1447   0.1475   0.1749   0.1886   0.1983   0.2113   0.2179
  0.2197   0.2407   0.2464   0.2577   0.2961   0.3289   0.3426   0.3537
  0.3867   0.3918   0.4050   0.4224   0.4298   0.4597   0.4705   0.4912
  0.5007   0.5129   0.5236   0.5323   0.5440   0.5576   0.5761   0.5926
  0.5978   0.6052   0.6194   0.6238   0.6337   0.6388   0.6461   0.6478
  0.6559   0.6731   0.6894   0.7045   0.7167   0.7520   0.7896   0.7903
  0.8166   0.8361   0.8417   0.8568   0.8833   0.8895   0.9015   0.9412
  0.9523   0.9621   0.9866   1.0259   1.0488   1.0518   1.0615   1.0785
  1.0864   1.0968   1.1004   1.1063   1.1467   1.1641   1.1749   1.2065
  1.2363   1.2461   1.2565   1.2705   1.2779   1.2921   1.3068   1.3417
  1.3665   1.3877   1.3974   1.4131   1.4337   1.4372   1.4473   1.4839
  1.5006   1.5063   1.5334   1.5362   1.5428   1.5612   1.5732   1.5953
  1.6015   1.6305   1.6463   1.6783   1.6900   1.7021   1.7334   1.7460
  1.7813   1.7910   1.8035   1.8458   1.8930   1.9118   1.9362   1.9586
  2.0197   2.0630   2.0842   2.1344   2.1826   2.2039   2.2290   2.2631
  2.2927   2.3014   2.3570   2.4185   2.4539   2.4666   2.4901   2.5323
  2.5631   2.5936   2.6507   2.6671   2.6856   2.7092   2.7144   2.7221
  2.7299   2.7588   2.7804   2.7946   2.8172   2.8441   2.8564   2.8612
  2.9160   2.9363   2.9599   2.9692   3.0043   3.0254   3.0469   3.0733
  3.0932   3.1142   3.1202   3.1346   3.1556   3.1582   3.1809   3.1878
  3.2290   3.2369   3.2644   3.2835   3.2975   3.3022   3.3151   3.3290
  3.3418   3.3468   3.3757   3.3947   3.3968   3.4143   3.4243   3.4372
  3.4521   3.4589   3.4844   3.4882   3.5063   3.5182   3.5259   3.5465
  3.5828   3.5956   3.6173   3.6209   3.6295   3.6508   3.6593   3.6788
  3.6826   3.6971   3.7186   3.7455   3.7506   3.7762   3.7953   3.7966
  3.8144   3.8471   3.8754   3.8829   3.9070   3.9289   3.9398   3.9654
  3.9842   3.9900   4.0214   4.0250   4.0380   4.0529   4.0996   4.1093
  4.1272   4.1388   4.1724   4.2139   4.2239   4.2343   4.2483   4.2689
  4.2962   4.3061   4.3164   4.3269   4.3517   4.3710   4.3888   4.4024
  4.4231   4.4313   4.4356   4.4623   4.4796   4.5334   4.5409   4.5504
  4.5981   4.6144   4.6350   4.6830   4.6986   4.7385   4.7570   4.7849
  4.8097   4.8283   4.8751   4.8964   4.9144   4.9544   5.0928   5.1171
  5.1213   5.1393   5.1516   5.2058   5.2165   5.2656   5.2842   5.3322
  5.3762   5.4087   5.4186   5.4360   5.4690   5.5128   5.5514   5.5686
  5.5835   5.6110   5.6205   5.6562   5.7001   5.8075   5.8204   5.8731
  5.9297   5.9797   6.1328   6.2171   6.2275   6.2532   6.3227   6.4258
  6.4382   6.5855   9.2470  11.3817  12.9552  13.8291  14.1809  14.6390
 --------------------------------------------------------------
 
          Ground-State Mulliken Net Atomic Charges

     Atom                 Charge (a.u.)
  ----------------------------------------
      1 C                     0.063156
      2 C                    -0.304201
      3 C                     0.047351
      4 H                     0.178351
      5 C                    -0.277750
      6 S                    -0.005264
      7 C                    -0.274412
      8 H                     0.101281
      9 H                     0.107288
     10 H                     0.107428
     11 C                    -0.381060
     12 H                     0.142008
     13 H                     0.161838
     14 H                     0.141110
     15 H                     0.192875
  ----------------------------------------
  Sum of atomic charges =     0.000000

 -----------------------------------------------------------------
                    Cartesian Multipole Moments
 -----------------------------------------------------------------
    Charge (ESU x 10^10)
                -0.0000
    Dipole Moment (Debye)
         X       0.7303      Y      -0.7480      Z       1.2886
       Tot       1.6593
    Quadrupole Moments (Debye-Ang)
        XX     -54.4027     XY      -1.5119     YY     -41.6399
        XZ       0.1302     YZ       0.7496     ZZ     -48.6203
    Octopole Moments (Debye-Ang^2)
       XXX      -0.6096    XXY     -31.3234    XYY       2.6564
       YYY     -83.1651    XXZ      -1.9427    XYZ      -0.4401
       YYZ      -5.4615    XZZ      -0.2456    YZZ     -26.2494
       ZZZ       0.9921
    Hexadecapole Moments (Debye-Ang^3)
      XXXX     -77.7025   XXXY       3.4174   XXYY    -163.9348
      XYYY      -3.0060   YYYY    -808.5844   XXXZ      -0.2906
      XXYZ     -30.1801   XYYZ       1.2906   YYYZ     -99.1140
      XXZZ    -102.3313   XYZZ       0.9193   YYZZ    -210.0941
      XZZZ       0.2222   YZZZ    -101.8364   ZZZZ    -484.4757
 -----------------------------------------------------------------
 Total job time:  156.46s(wall), 155.17s(cpu) 
 Sun Jul 10 11:15:32 2022

        *************************************************************
        *                                                           *
        *  Thank you very much for using Q-Chem.  Have a nice day.  *
        *                                                           *
        *************************************************************


remove work dirs ./qchem891185.0 -- ./qchem891185.-1
rm -rf ./qchem891185
