You are running Q-Chem version: 5.4.0

#
# job setting
#
local host:  exp-1-46
current dir: /expanse/lustre/scratch/theleonzhang/temp_project/Hydrogenated_Impropers_Test
input file:  Methylthiophene_Phi_5_Theta_330_Methylthiophene_Hydrogenated_Improper.qcin
output file: 
nprocs     : 0
nthreads   : 1
#
# qchem installation setting
#
QC:          /cm/shared/apps/spack/cpu/opt/spack/linux-centos8-zen2/gcc-10.2.0/qchem-5.4-akfmr7b3t57bfs6qan3padb2wnb2i7cl
QCAUX:       /cm/shared/apps/spack/cpu/opt/spack/linux-centos8-zen2/gcc-10.2.0/qchem-5.4-akfmr7b3t57bfs6qan3padb2wnb2i7cl/qcaux
QCPROG:      /cm/shared/apps/spack/cpu/opt/spack/linux-centos8-zen2/gcc-10.2.0/qchem-5.4-akfmr7b3t57bfs6qan3padb2wnb2i7cl/exe/qcprog.exe_s
QCPROG_S:    /cm/shared/apps/spack/cpu/opt/spack/linux-centos8-zen2/gcc-10.2.0/qchem-5.4-akfmr7b3t57bfs6qan3padb2wnb2i7cl/exe/qcprog.exe_s
PARALLEL:    -DSERIAL
QCMPI:       mpich
#
# qchem directory setting
#
qcrun:       qchem13503
QCSCRATCH:   .
QCLOCALSCR:  
QCTMPDIR:    .
QCFILEPREF:  ./qchem13503
QCSAVEDIR:   
workdirs:    ./qchem13503
workdir0:    ./qchem13503
partmpdirs =  
#
# parallel setting
#
QCRSH:           ssh
QCMPI:           mpich
QCMPIRUN:        /cm/shared/apps/spack/cpu/opt/spack/linux-centos8-zen2/gcc-10.2.0/qchem-5.4-akfmr7b3t57bfs6qan3padb2wnb2i7cl/bin/mpi/mpirun_qchem
QCMACHINEFILE:   ./qchem13503/hostfile

#
# env setting
#
exported envs:   QC QCAUX QCSCRATCH QCRUNNAME QCFILEPREF QCPROG QCPROG_S GUIFILE

Running Job 1 of 1 Methylthiophene_Phi_5_Theta_330_Methylthiophene_Hydrogenated_Improper.qcin
qchem Methylthiophene_Phi_5_Theta_330_Methylthiophene_Hydrogenated_Improper.qcin_13503.0 ./qchem13503/ 0
/cm/shared/apps/spack/cpu/opt/spack/linux-centos8-zen2/gcc-10.2.0/qchem-5.4-akfmr7b3t57bfs6qan3padb2wnb2i7cl/exe/qcprog.exe_s Methylthiophene_Phi_5_Theta_330_Methylthiophene_Hydrogenated_Improper.qcin_13503.0 ./qchem13503/
                  Welcome to Q-Chem
     A Quantum Leap Into The Future Of Chemistry


 Q-Chem 5.4, Q-Chem, Inc., Pleasanton, CA (2021)

 License issued to: University of California, San Diego (site)

 E. Epifanovsky,  A. T. B. Gilbert,  Xintian Feng,  Joonho Lee,  Yuezhi Mao,  
 N. Mardirossian,  P. Pokhilko,  A. White,  M. Wormit,  M. P. Coons,  
 A. L. Dempwolff,  Zhengting Gan,  D. Hait,  P. R. Horn,  L. D. Jacobson,  
 I. Kaliman,  J. Kussmann,  A. W. Lange,  Ka Un Lao,  D. S. Levine,  Jie Liu,  
 S. C. McKenzie,  A. F. Morrison,  K. Nanda,  F. Plasser,  D. R. Rehn,  
 M. L. Vidal,  Zhi-Qiang You,  Ying Zhu,  B. Alam,  B. Albrecht,  
 A. Aldossary,  E. Alguire,  J. H. Andersen,  D. Barton,  K. Begam,  A. Behn,  
 Y. A. Bernard,  E. J. Berquist,  H. Burton,  A. Carreras,  K. Carter-Fenk,  
 R. Chakraborty,  A. D. Chien,  K. D. Closser,  V. Cofer-Shabica,  
 S. Dasgupta,  Jia Deng,  M. de Wergifosse,  M. Diedenhofen,  Hainam Do,  
 S. Ehlert,  Po-Tung Fang,  S. Fatehi,  Qingguo Feng,  J. Gayvert,  
 Qinghui Ge,  G. Gidofalvi,  M. Goldey,  J. Gomes,  C. Gonzalez-Espinoza,  
 S. Gulania,  A. Gunina,  M. W. D. Hanson-Heine,  P. H. P. Harbach,  
 A. W. Hauser,  M. F. Herbst,  M. Hernandez Vera,  M. Hodecker,  
 Z. C. Holden,  S. Houck,  Xunkun Huang,  Kerwin Hui,  B. C. Huynh,  
 M. Ivanov,  Hyunjun Ji,  Hanjie Jiang,  B. Kaduk,  S. Kaehler,  
 K. Khistyaev,  Jaehoon Kim,  P. Klunzinger,  Z. Koczor-Benda,  
 Joong Hoon Koh,  D. Kosenkov,  L. Koulias,  T. Kowalczyk,  C. M. Krauter,  
 K. Kue,  A. Kunitsa,  T. Kus,  A. Landau,  K. V. Lawler,  D. Lefrancois,  
 S. Lehtola,  Rain Li,  Yi-Pei Li,  Jiashu Liang,  M. Liebenthal,  
 Hung-Hsuan Lin,  You-Sheng Lin,  Fenglai Liu,  Kuan-Yu Liu,  
 M. Loipersberger,  A. Luenser,  A. Manjanath,  P. Manohar,  E. Mansoor,  
 S. F. Manzer,  Shan-Ping Mao,  A. V. Marenich,  T. Markovich,  S. Mason,  
 S. A. Maurer,  P. F. McLaughlin,  M. F. S. J. Menger,  J.-M. Mewes,  
 S. A. Mewes,  P. Morgante,  J. W. Mullinax,  T. S. Nguyen-Beck,  
 K. J. Oosterbaan,  G. Paran,  Alexander C. Paul,  Suranjan K. Paul,  
 F. Pavosevic,  Zheng Pei,  S. Prager,  E. I. Proynov,  E. Ramos,  B. Rana,  
 A. E. Rask,  A. Rettig,  R. M. Richard,  F. Rob,  E. Rossomme,  T. Scheele,  
 M. Scheurer,  M. Schneider,  N. Sergueev,  S. M. Sharada,  W. Skomorowski,  
 D. W. Small,  C. J. Stein,  Yu-Chuan Su,  E. J. Sundstrom,  Zhen Tao,  
 J. Thirman,  T. Tsuchimochi,  N. M. Tubman,  S. P. Veccham,  O. Vydrov,  
 J. Wenzel,  J. Witte,  A. Yamada,  Kun Yao,  S. Yeganeh,  S. R. Yost,  
 A. Zech,  Igor Ying Zhang,  Xing Zhang,  Yu Zhang,  D. Zuev,  
 A. Aspuru-Guzik,  A. T. Bell,  N. A. Besley,  K. B. Bravaya,  B. R. Brooks,  
 D. Casanova,  Jeng-Da Chai,  S. Coriani,  C. J. Cramer,  
 A. E. DePrince, III,  R. A. DiStasio Jr.,  A. Dreuw,  B. D. Dunietz,  
 T. R. Furlani,  W. A. Goddard III,  S. Grimme,  S. Hammes-Schiffer,  
 T. Head-Gordon,  W. J. Hehre,  Chao-Ping Hsu,  T.-C. Jagau,  Yousung Jung,  
 A. Klamt,  Jing Kong,  D. S. Lambrecht,  WanZhen Liang,  N. J. Mayhall,  
 C. W. McCurdy,  J. B. Neaton,  C. Ochsenfeld,  J. A. Parkhill,  R. Peverati,  
 V. A. Rassolov,  Yihan Shao,  L. V. Slipchenko,  T. Stauch,  R. P. Steele,  
 J. E. Subotnik,  A. J. W. Thom,  A. Tkatchenko,  D. G. Truhlar,  
 T. Van Voorhis,  T. A. Wesolowski,  K. B. Whaley,  H. L. Woodcock III,  
 P. M. Zimmerman,  S. Faraji,  P. M. W. Gill,  M. Head-Gordon,  
 J. M. Herbert,  A. I. Krylov

 Contributors to earlier versions of Q-Chem not listed above: 
 R. D. Adamson,  B. Austin,  R. Baer,  J. Baker,  G. J. O. Beran,  
 K. Brandhorst,  S. T. Brown,  E. F. C. Byrd,  A. K. Chakraborty,  
 G. K. L. Chan,  Chun-Min Chang,  Yunqing Chen,  C.-L. Cheng,  
 Siu Hung Chien,  D. M. Chipman,  D. L. Crittenden,  H. Dachsel,  
 R. J. Doerksen,  A. D. Dutoi,  R. G. Edgar,  J. Fosso-Tande,  
 L. Fusti-Molnar,  D. Ghosh,  A. Ghysels,  A. Golubeva-Zadorozhnaya,  
 J. Gonthier,  M. S. Gordon,  S. R. Gwaltney,  G. Hawkins,  J. E. Herr,  
 A. Heyden,  S. Hirata,  E. G. Hohenstein,  G. Kedziora,  F. J. Keil,  
 C. Kelley,  Jihan Kim,  R. A. King,  R. Z. Khaliullin,  P. P. Korambath,  
 W. Kurlancheek,  A. Laurent,  A. M. Lee,  M. S. Lee,  S. V. Levchenko,  
 Ching Yeh Lin,  D. Liotard,  E. Livshits,  R. C. Lochan,  I. Lotan,  
 L. A. Martinez-Martinez,  P. E. Maslen,  N. Nair,  D. P. O'Neill,  
 D. Neuhauser,  E. Neuscamman,  C. M. Oana,  R. Olivares-Amaya,  R. Olson,  
 T. M. Perrine,  B. Peters,  P. A. Pieniazek,  A. Prociuk,  Y. M. Rhee,  
 J. Ritchie,  M. A. Rohrdanz,  E. Rosta,  N. J. Russ,  H. F. Schaefer III,  
 M. W. Schmidt,  N. E. Schultz,  S. Sharma,  N. Shenvi,  C. D. Sherrill,  
 A. C. Simmonett,  A. Sodt,  T. Stein,  D. Stuck,  K. S. Thanthiriwatte,  
 V. Vanovschi,  L. Vogt,  Tao Wang,  A. Warshel,  M. A. Watson,  
 C. F. Williams,  Q. Wu,  X. Xu,  Jun Yang,  W. Zhang,  Yan Zhao

 Please cite Q-Chem as follows:
 Y. Shao et al., Mol. Phys. 113, 184-215 (2015)
 DOI: 10.1080/00268976.2014.952696

 Q-Chem 5.4.0 for Intel X86 EM64T Linux

 Parts of Q-Chem use Armadillo 9.800.1 (Horizon Scraper).
 http://arma.sourceforge.net/

 Q-Chem begins on Sun Jul 10 10:14:56 2022  

 Host: 
0

     Scratch files written to ./qchem13503//
 May1621 |scratch|qcdevops|jenkins|workspace|build_RNUM    
 Processing $rem in /cm/shared/apps/spack/cpu/opt/spack/linux-centos8-zen2/gcc-10.2.0/qchem-5.4-akfmr7b3t57bfs6qan3padb2wnb2i7cl/config/preferences:
 Processing $rem in /home/theleonzhang/.qchemrc:
 Symmetry turned off for PCM/SM12/SMD calculation
 Core orbitals will be frozen

 Checking the input file for inconsistencies... 	...done.

--------------------------------------------------------------
User input:
--------------------------------------------------------------
$molecule
0 1
C	-0.055231	-0.573729	0.012109
C	0.020069	0.286571	1.111509
C	0.140669	1.665271	0.788809
H	-0.012031	-0.080829	2.148209
C	0.159969	1.885071	-0.600391
S	0.026969	0.365071	-1.474691
C	0.235569	2.748871	1.826709
H	0.198469	2.324771	2.848809
H	-0.596431	3.478371	1.738309
H	1.181569	3.322871	1.738309
C	-0.055231	-2.014429	0.012109
H	-0.990631	-2.014129	0.552009
H	-0.464731	-2.718229	-0.697391
H	0.418369	-2.533329	0.832309
H	0.242669	2.830671	-1.149491
$end

$rem
JOBTYPE		SP
EXCHANGE	HF
CORRELATION	pRIMP2
BASIS		cc-pvtz
METHOD		rimp2
AUX_BASIS	rimp2-cc-pvtz
SOLVENT_METHOD	PCM
PURECART	11111
SYMMETRY	false
MEM_TOTAL	110000
SCF_CONVERGENCE = 6
THRESH=10
$end



$solvent
dielectric 4.90
$end
--------------------------------------------------------------
 ----------------------------------------------------------------
             Standard Nuclear Orientation (Angstroms)
    I     Atom           X                Y                Z
 ----------------------------------------------------------------
    1      C      -0.0552310000    -0.5737290000     0.0121090000
    2      C       0.0200690000     0.2865710000     1.1115090000
    3      C       0.1406690000     1.6652710000     0.7888090000
    4      H      -0.0120310000    -0.0808290000     2.1482090000
    5      C       0.1599690000     1.8850710000    -0.6003910000
    6      S       0.0269690000     0.3650710000    -1.4746910000
    7      C       0.2355690000     2.7488710000     1.8267090000
    8      H       0.1984690000     2.3247710000     2.8488090000
    9      H      -0.5964310000     3.4783710000     1.7383090000
   10      H       1.1815690000     3.3228710000     1.7383090000
   11      C      -0.0552310000    -2.0144290000     0.0121090000
   12      H      -0.9906310000    -2.0141290000     0.5520090000
   13      H      -0.4647310000    -2.7182290000    -0.6973910000
   14      H       0.4183690000    -2.5333290000     0.8323090000
   15      H       0.2426690000     2.8306710000    -1.1494910000
 ----------------------------------------------------------------
 Nuclear Repulsion Energy =         344.26222985 hartrees
 There are       30 alpha and       30 beta electrons

 Q-Chem warning in module forms1/BasisType.C, line 2236:

 You are not using the predefined 5D/6D in this basis set.

 Requested basis set is cc-pVTZ
 There are 120 shells and 326 basis functions

 Total QAlloc Memory Limit 110000 MB
 Mega-Array Size       188 MB
 MEM_STATIC part       192 MB
 Discretize the solute cavity surface with Lebedev spheres
	Using 110 Lebedev grid points for each H atom
	Using 194 Lebedev grid points for other atoms
	Atomic van der Waals radii will be scaled by 1.20
 Remove points where switching function is < 1.0e-08
 Keep 1072 surface tesserae and discard 1166 interior tesserae
 Molecular Surface Area = 159.150 Angst**2

                       Distance Matrix (Angstroms)
             C (  1)   C (  2)   C (  3)   H (  4)   C (  5)   S (  6)
   C (  2)  1.398022
   C (  3)  2.377974  1.421089
   H (  4)  2.192656  1.100345  2.218141
   C (  5)  2.543062  2.346354  1.406613  3.383659
   S (  6)  1.760306  2.587400  2.612830  3.650445  1.758548
   C (  7)  3.796974  2.573106  1.503473  2.858648  2.577340  4.077408
   H (  8)  4.063562  2.684082  2.163765  2.514371  3.477326  4.749999
   H (  9)  4.437587  3.310670  2.175362  3.630075  2.929209  4.517149
   H ( 10)  4.437672  3.310752  2.175468  3.630134  2.929241  4.517195
   C ( 11)  1.440700  2.551265  3.765877  2.881597  3.953172  2.807018
   H ( 12)  1.800338  2.574447  3.856669  2.691312  4.225597  3.286885
   H ( 13)  2.295640  3.540618  4.668016  3.906182  4.646507  3.217562
   H ( 14)  2.176478  2.861544  4.207999  2.816308  4.652060  3.725073
   H ( 15)  3.609432  3.410882  2.263972  4.406419  1.096590  2.496290
             C (  7)   H (  8)   H (  9)   H ( 10)   C ( 11)   H ( 12)
   H (  8)  1.107215
   H (  9)  1.110049  1.787699
   H ( 10)  1.110048  1.787708  1.784787
   C ( 11)  5.105523  5.190365  5.783037  5.744233
   H ( 12)  5.080807  5.051267  5.632962  5.882969  1.080030
   H ( 13)  6.062234  6.200582  6.659417  6.718469  1.080007  1.527523
   H ( 14)  5.378093  5.264576  6.163700  5.974813  1.079945  1.527553
   H ( 15)  2.977332  4.030421  3.076198  3.076229  4.991298  5.280930
             H ( 13)   H ( 14)
   H ( 14)  1.775961
   H ( 15)  5.612050  5.721092
 
 Requested basis set is rimp2-cc-pVTZ
 There are 250 shells and 848 basis functions
 A cutoff of  1.0D-10 yielded   6167 shell pairs
 There are     45161 function pairs (     58076 Cartesian)
 Smallest overlap matrix eigenvalue = 8.20E-05

 Scale SEOQF with 1.000000e+00/1.000000e-01/1.000000e-01

 Standard Electronic Orientation quadrupole field applied
 Nucleus-field energy     =     0.0000000037 hartrees
 Guess from superposition of atomic densities
 Warning:  Energy on first SCF cycle will be non-variational
 SAD guess density has 60.000000 electrons

 -----------------------------------------------------------------------
  General SCF calculation program by
  Eric Jon Sundstrom, Paul Horn, Yuezhi Mao, Dmitri Zuev, Alec White,
  David Stuck, Shaama M.S., Shane Yost, Joonho Lee, David Small,
  Daniel Levine, Susi Lehtola, Hugh Burton, Evgeny Epifanovsky,
  Bang C. Huynh
 -----------------------------------------------------------------------
 Hartree-Fock
 A restricted SCF calculation will be
 performed using DIIS
 SCF converges when DIIS error is below 1.0e-06
 ---------------------------------------
  Cycle       Energy         DIIS error
 ---------------------------------------
    1    -632.0964850777      2.91e-02  
    2    -629.3435443687      1.93e-03  
    3    -629.4134703922      6.82e-04  
    4    -629.4208746963      3.55e-04  
    5    -629.4230473633      6.16e-05  
    6    -629.4231750379      2.52e-05  
    7    -629.4232050743      1.09e-05  
    8    -629.4232134978      5.07e-06  
    9    -629.4232149469      1.67e-06  
   10    -629.4232151279      6.40e-07  Convergence criterion met
 ---------------------------------------
 SCF time:   CPU 144.42s  wall 146.00s 

************** Final PCM Free Energy Summary **************
 G_electrostatic  =      -0.00583094 hartree =      -3.65896728 kcal/mol
 G_cavitation     =       0.00000000 hartree =       0.00000000 kcal/mol
 G_dispersion     =       0.00000000 hartree =       0.00000000 kcal/mol
 G_repulsion      =       0.00000000 hartree =       0.00000000 kcal/mol
 --------------------------------------------------
 Non-electrostatic Free Energy =       0.00000000 hartree =       0.00000000 kcal/mol
 Total                         =      -0.00583094 hartree =      -3.65896728 kcal/mol
 --------------------------------------------------
 SCF Energy (H0 + V/2)                       =    -629.42321513 
 Solute Internal Energy (H0)                 =    -629.41738419 
 Total Free Energy (H0 + V/2 + non-elec)     =    -629.42321513 hartree
                                             = -394969.02876004 kcal/mol
***********************************************************

 SCF   energy in the final basis set =     -629.4232151279
 Total energy in the final basis set =     -629.4232151279


 --------------------------------------------------------------
  Generalized many-body perturbation theory program
  by Joonho Lee, Fazle Rob, Xintian Feng, Evgeny Epifanovsky

 No regularization used 
 (reg. param. = 0.0000e+00)
  (P|Q)^-1/2 Time:  CPU 0.56 s  wall 0.56 s

 In RI-MP2 calculation: 
 # of frozen core orbitals: 11

 Components of the RIMP2 correlation energy:
        aaaa    correlation energy =        -0.1454244747 a.u.
        abab    correlation energy =        -0.8858039904 a.u.
        bbbb    correlation energy =        -0.1454244747 a.u.
        non-Brillouin singles      =        -0.0000000000 a.u.
        total same-spin energy     =        -0.2908489493 a.u.
        total opposite-spin energy =        -0.8858039904 a.u.

 Total  RIMP2   correlation energy =        -1.1766529397 a.u.
        RIMP2         total energy =      -630.5998680676 a.u.

 RI-MP2 Energy Time:  CPU 14.90 s  wall 14.96 s
 
 --------------------------------------------------------------
 
                    Orbital Energies (a.u.)
 --------------------------------------------------------------
 
 Alpha MOs
 -- Occupied --
-91.9772 -11.2844 -11.2496 -11.2472 -11.2267 -11.2257 -11.2203  -8.9770
 -6.6579  -6.6574  -6.6568  -1.1601  -1.0555  -0.9984  -0.9404  -0.8835
 -0.7425  -0.7199  -0.6480  -0.5905  -0.5737  -0.5701  -0.5569  -0.5439
 -0.5088  -0.4911  -0.4648  -0.4515  -0.3375  -0.2910
 -- Virtual --
  0.1126   0.1449   0.1477   0.1752   0.1822   0.1895   0.2114   0.2191
  0.2340   0.2407   0.2550   0.2577   0.2953   0.3258   0.3431   0.3523
  0.3860   0.3894   0.4063   0.4170   0.4365   0.4503   0.4723   0.4927
  0.5019   0.5096   0.5182   0.5370   0.5446   0.5531   0.5720   0.5867
  0.5967   0.6065   0.6134   0.6233   0.6350   0.6372   0.6475   0.6505
  0.6621   0.6647   0.6829   0.7058   0.7204   0.7548   0.7771   0.7863
  0.8213   0.8334   0.8460   0.8581   0.8712   0.8862   0.9232   0.9367
  0.9560   0.9679   1.0048   1.0201   1.0308   1.0514   1.0589   1.0776
  1.0809   1.0930   1.0964   1.1181   1.1565   1.1707   1.1932   1.2131
  1.2321   1.2406   1.2538   1.2685   1.2739   1.2849   1.3102   1.3340
  1.3470   1.3831   1.3927   1.4168   1.4310   1.4376   1.4652   1.4825
  1.5019   1.5145   1.5168   1.5417   1.5527   1.5673   1.5753   1.5928
  1.5966   1.6273   1.6383   1.6876   1.6951   1.7025   1.7202   1.7464
  1.7618   1.7946   1.8073   1.8385   1.8966   1.9074   1.9432   1.9532
  2.0027   2.0411   2.0916   2.1546   2.1815   2.2013   2.2280   2.2460
  2.2672   2.3038   2.3497   2.4128   2.4680   2.4940   2.5188   2.5259
  2.5756   2.5903   2.6461   2.6721   2.6811   2.7071   2.7157   2.7302
  2.7552   2.7627   2.7698   2.7978   2.8053   2.8518   2.8617   2.8809
  2.9034   2.9277   2.9465   2.9714   2.9954   3.0184   3.0358   3.0469
  3.0824   3.0971   3.1141   3.1427   3.1567   3.1594   3.1678   3.1893
  3.2295   3.2409   3.2634   3.2828   3.2975   3.3096   3.3186   3.3255
  3.3332   3.3650   3.3747   3.3875   3.4157   3.4268   3.4294   3.4389
  3.4524   3.4730   3.4855   3.4908   3.5052   3.5229   3.5260   3.5731
  3.5824   3.5934   3.6074   3.6182   3.6253   3.6467   3.6591   3.6847
  3.6877   3.6948   3.7135   3.7226   3.7549   3.7664   3.7874   3.8077
  3.8264   3.8364   3.8540   3.8797   3.9093   3.9283   3.9376   3.9633
  3.9787   3.9920   4.0164   4.0274   4.0431   4.0596   4.0992   4.1036
  4.1249   4.1335   4.1589   4.2146   4.2189   4.2303   4.2367   4.2658
  4.2894   4.2998   4.3080   4.3319   4.3438   4.3817   4.3975   4.4054
  4.4165   4.4261   4.4467   4.4667   4.4703   4.4988   4.5349   4.5847
  4.6018   4.6167   4.6403   4.6842   4.7040   4.7458   4.7694   4.7898
  4.8098   4.8347   4.8755   4.9019   4.9076   4.9583   5.0775   5.0943
  5.1158   5.1368   5.1585   5.2015   5.2262   5.2667   5.2912   5.3308
  5.3725   5.4014   5.4182   5.4428   5.4619   5.5067   5.5525   5.5603
  5.5838   5.6230   5.6393   5.6537   5.7006   5.8129   5.8270   5.8839
  5.9416   5.9790   6.1116   6.1781   6.2272   6.2517   6.3057   6.4245
  6.4269   6.5610   9.2722  11.4291  12.9697  13.8186  14.1739  14.6729
 --------------------------------------------------------------
 
          Ground-State Mulliken Net Atomic Charges

     Atom                 Charge (a.u.)
  ----------------------------------------
      1 C                     0.075438
      2 C                    -0.303958
      3 C                     0.046503
      4 H                     0.175722
      5 C                    -0.274719
      6 S                    -0.002096
      7 C                    -0.275498
      8 H                     0.101121
      9 H                     0.107276
     10 H                     0.107427
     11 C                    -0.388964
     12 H                     0.139170
     13 H                     0.162026
     14 H                     0.138931
     15 H                     0.191621
  ----------------------------------------
  Sum of atomic charges =     0.000000

 -----------------------------------------------------------------
                    Cartesian Multipole Moments
 -----------------------------------------------------------------
    Charge (ESU x 10^10)
                -0.0000
    Dipole Moment (Debye)
         X      -0.5332      Y      -0.6416      Z       1.7882
       Tot       1.9732
    Quadrupole Moments (Debye-Ang)
        XX     -54.0705     XY       2.2143     YY     -41.9589
        XZ       0.2687     YZ      -0.2576     ZZ     -48.6640
    Octopole Moments (Debye-Ang^2)
       XXX      -9.2436    XXY     -31.6236    XYY      -4.3399
       YYY     -82.0721    XXZ      -2.0183    XYZ      -1.2323
       YYZ      -3.3995    XZZ      -2.3675    YZZ     -25.6278
       ZZZ       0.4865
    Hexadecapole Moments (Debye-Ang^3)
      XXXX     -83.1574   XXXY     -30.9640   XXYY    -161.3126
      XYYY     -17.9466   YYYY    -806.9660   XXXZ      -8.4131
      XXYZ     -29.3852   XYYZ      -0.3367   YYYZ    -100.9157
      XXZZ    -102.2347   XYZZ      -8.5598   YYZZ    -211.5305
      XZZZ      -8.8391   YZZZ     -98.9083   ZZZZ    -484.5657
 -----------------------------------------------------------------
 Total job time:  161.37s(wall), 159.71s(cpu) 
 Sun Jul 10 10:17:38 2022

        *************************************************************
        *                                                           *
        *  Thank you very much for using Q-Chem.  Have a nice day.  *
        *                                                           *
        *************************************************************


remove work dirs ./qchem13503.0 -- ./qchem13503.-1
rm -rf ./qchem13503
