You are running Q-Chem version: 5.4.0

#
# job setting
#
local host:  exp-5-33
current dir: /expanse/lustre/scratch/theleonzhang/temp_project/Hydrogenated_Impropers_Test
input file:  Methylthiophene_Phi_30_Theta_130_Methylthiophene_Hydrogenated_Improper_Alternate.qcin
output file: 
nprocs     : 0
nthreads   : 1
#
# qchem installation setting
#
QC:          /cm/shared/apps/spack/cpu/opt/spack/linux-centos8-zen2/gcc-10.2.0/qchem-5.4-akfmr7b3t57bfs6qan3padb2wnb2i7cl
QCAUX:       /cm/shared/apps/spack/cpu/opt/spack/linux-centos8-zen2/gcc-10.2.0/qchem-5.4-akfmr7b3t57bfs6qan3padb2wnb2i7cl/qcaux
QCPROG:      /cm/shared/apps/spack/cpu/opt/spack/linux-centos8-zen2/gcc-10.2.0/qchem-5.4-akfmr7b3t57bfs6qan3padb2wnb2i7cl/exe/qcprog.exe_s
QCPROG_S:    /cm/shared/apps/spack/cpu/opt/spack/linux-centos8-zen2/gcc-10.2.0/qchem-5.4-akfmr7b3t57bfs6qan3padb2wnb2i7cl/exe/qcprog.exe_s
PARALLEL:    -DSERIAL
QCMPI:       mpich
#
# qchem directory setting
#
qcrun:       qchem2169541
QCSCRATCH:   .
QCLOCALSCR:  
QCTMPDIR:    .
QCFILEPREF:  ./qchem2169541
QCSAVEDIR:   
workdirs:    ./qchem2169541
workdir0:    ./qchem2169541
partmpdirs =  
#
# parallel setting
#
QCRSH:           ssh
QCMPI:           mpich
QCMPIRUN:        /cm/shared/apps/spack/cpu/opt/spack/linux-centos8-zen2/gcc-10.2.0/qchem-5.4-akfmr7b3t57bfs6qan3padb2wnb2i7cl/bin/mpi/mpirun_qchem
QCMACHINEFILE:   ./qchem2169541/hostfile

#
# env setting
#
exported envs:   QC QCAUX QCSCRATCH QCRUNNAME QCFILEPREF QCPROG QCPROG_S GUIFILE

Running Job 1 of 1 Methylthiophene_Phi_30_Theta_130_Methylthiophene_Hydrogenated_Improper_Alternate.qcin
qchem Methylthiophene_Phi_30_Theta_130_Methylthiophene_Hydrogenated_Improper_Alternate.qcin_2169541.0 ./qchem2169541/ 0
/cm/shared/apps/spack/cpu/opt/spack/linux-centos8-zen2/gcc-10.2.0/qchem-5.4-akfmr7b3t57bfs6qan3padb2wnb2i7cl/exe/qcprog.exe_s Methylthiophene_Phi_30_Theta_130_Methylthiophene_Hydrogenated_Improper_Alternate.qcin_2169541.0 ./qchem2169541/
                  Welcome to Q-Chem
     A Quantum Leap Into The Future Of Chemistry


 Q-Chem 5.4, Q-Chem, Inc., Pleasanton, CA (2021)

 License issued to: University of California, San Diego (site)

 E. Epifanovsky,  A. T. B. Gilbert,  Xintian Feng,  Joonho Lee,  Yuezhi Mao,  
 N. Mardirossian,  P. Pokhilko,  A. White,  M. Wormit,  M. P. Coons,  
 A. L. Dempwolff,  Zhengting Gan,  D. Hait,  P. R. Horn,  L. D. Jacobson,  
 I. Kaliman,  J. Kussmann,  A. W. Lange,  Ka Un Lao,  D. S. Levine,  Jie Liu,  
 S. C. McKenzie,  A. F. Morrison,  K. Nanda,  F. Plasser,  D. R. Rehn,  
 M. L. Vidal,  Zhi-Qiang You,  Ying Zhu,  B. Alam,  B. Albrecht,  
 A. Aldossary,  E. Alguire,  J. H. Andersen,  D. Barton,  K. Begam,  A. Behn,  
 Y. A. Bernard,  E. J. Berquist,  H. Burton,  A. Carreras,  K. Carter-Fenk,  
 R. Chakraborty,  A. D. Chien,  K. D. Closser,  V. Cofer-Shabica,  
 S. Dasgupta,  Jia Deng,  M. de Wergifosse,  M. Diedenhofen,  Hainam Do,  
 S. Ehlert,  Po-Tung Fang,  S. Fatehi,  Qingguo Feng,  J. Gayvert,  
 Qinghui Ge,  G. Gidofalvi,  M. Goldey,  J. Gomes,  C. Gonzalez-Espinoza,  
 S. Gulania,  A. Gunina,  M. W. D. Hanson-Heine,  P. H. P. Harbach,  
 A. W. Hauser,  M. F. Herbst,  M. Hernandez Vera,  M. Hodecker,  
 Z. C. Holden,  S. Houck,  Xunkun Huang,  Kerwin Hui,  B. C. Huynh,  
 M. Ivanov,  Hyunjun Ji,  Hanjie Jiang,  B. Kaduk,  S. Kaehler,  
 K. Khistyaev,  Jaehoon Kim,  P. Klunzinger,  Z. Koczor-Benda,  
 Joong Hoon Koh,  D. Kosenkov,  L. Koulias,  T. Kowalczyk,  C. M. Krauter,  
 K. Kue,  A. Kunitsa,  T. Kus,  A. Landau,  K. V. Lawler,  D. Lefrancois,  
 S. Lehtola,  Rain Li,  Yi-Pei Li,  Jiashu Liang,  M. Liebenthal,  
 Hung-Hsuan Lin,  You-Sheng Lin,  Fenglai Liu,  Kuan-Yu Liu,  
 M. Loipersberger,  A. Luenser,  A. Manjanath,  P. Manohar,  E. Mansoor,  
 S. F. Manzer,  Shan-Ping Mao,  A. V. Marenich,  T. Markovich,  S. Mason,  
 S. A. Maurer,  P. F. McLaughlin,  M. F. S. J. Menger,  J.-M. Mewes,  
 S. A. Mewes,  P. Morgante,  J. W. Mullinax,  T. S. Nguyen-Beck,  
 K. J. Oosterbaan,  G. Paran,  Alexander C. Paul,  Suranjan K. Paul,  
 F. Pavosevic,  Zheng Pei,  S. Prager,  E. I. Proynov,  E. Ramos,  B. Rana,  
 A. E. Rask,  A. Rettig,  R. M. Richard,  F. Rob,  E. Rossomme,  T. Scheele,  
 M. Scheurer,  M. Schneider,  N. Sergueev,  S. M. Sharada,  W. Skomorowski,  
 D. W. Small,  C. J. Stein,  Yu-Chuan Su,  E. J. Sundstrom,  Zhen Tao,  
 J. Thirman,  T. Tsuchimochi,  N. M. Tubman,  S. P. Veccham,  O. Vydrov,  
 J. Wenzel,  J. Witte,  A. Yamada,  Kun Yao,  S. Yeganeh,  S. R. Yost,  
 A. Zech,  Igor Ying Zhang,  Xing Zhang,  Yu Zhang,  D. Zuev,  
 A. Aspuru-Guzik,  A. T. Bell,  N. A. Besley,  K. B. Bravaya,  B. R. Brooks,  
 D. Casanova,  Jeng-Da Chai,  S. Coriani,  C. J. Cramer,  
 A. E. DePrince, III,  R. A. DiStasio Jr.,  A. Dreuw,  B. D. Dunietz,  
 T. R. Furlani,  W. A. Goddard III,  S. Grimme,  S. Hammes-Schiffer,  
 T. Head-Gordon,  W. J. Hehre,  Chao-Ping Hsu,  T.-C. Jagau,  Yousung Jung,  
 A. Klamt,  Jing Kong,  D. S. Lambrecht,  WanZhen Liang,  N. J. Mayhall,  
 C. W. McCurdy,  J. B. Neaton,  C. Ochsenfeld,  J. A. Parkhill,  R. Peverati,  
 V. A. Rassolov,  Yihan Shao,  L. V. Slipchenko,  T. Stauch,  R. P. Steele,  
 J. E. Subotnik,  A. J. W. Thom,  A. Tkatchenko,  D. G. Truhlar,  
 T. Van Voorhis,  T. A. Wesolowski,  K. B. Whaley,  H. L. Woodcock III,  
 P. M. Zimmerman,  S. Faraji,  P. M. W. Gill,  M. Head-Gordon,  
 J. M. Herbert,  A. I. Krylov

 Contributors to earlier versions of Q-Chem not listed above: 
 R. D. Adamson,  B. Austin,  R. Baer,  J. Baker,  G. J. O. Beran,  
 K. Brandhorst,  S. T. Brown,  E. F. C. Byrd,  A. K. Chakraborty,  
 G. K. L. Chan,  Chun-Min Chang,  Yunqing Chen,  C.-L. Cheng,  
 Siu Hung Chien,  D. M. Chipman,  D. L. Crittenden,  H. Dachsel,  
 R. J. Doerksen,  A. D. Dutoi,  R. G. Edgar,  J. Fosso-Tande,  
 L. Fusti-Molnar,  D. Ghosh,  A. Ghysels,  A. Golubeva-Zadorozhnaya,  
 J. Gonthier,  M. S. Gordon,  S. R. Gwaltney,  G. Hawkins,  J. E. Herr,  
 A. Heyden,  S. Hirata,  E. G. Hohenstein,  G. Kedziora,  F. J. Keil,  
 C. Kelley,  Jihan Kim,  R. A. King,  R. Z. Khaliullin,  P. P. Korambath,  
 W. Kurlancheek,  A. Laurent,  A. M. Lee,  M. S. Lee,  S. V. Levchenko,  
 Ching Yeh Lin,  D. Liotard,  E. Livshits,  R. C. Lochan,  I. Lotan,  
 L. A. Martinez-Martinez,  P. E. Maslen,  N. Nair,  D. P. O'Neill,  
 D. Neuhauser,  E. Neuscamman,  C. M. Oana,  R. Olivares-Amaya,  R. Olson,  
 T. M. Perrine,  B. Peters,  P. A. Pieniazek,  A. Prociuk,  Y. M. Rhee,  
 J. Ritchie,  M. A. Rohrdanz,  E. Rosta,  N. J. Russ,  H. F. Schaefer III,  
 M. W. Schmidt,  N. E. Schultz,  S. Sharma,  N. Shenvi,  C. D. Sherrill,  
 A. C. Simmonett,  A. Sodt,  T. Stein,  D. Stuck,  K. S. Thanthiriwatte,  
 V. Vanovschi,  L. Vogt,  Tao Wang,  A. Warshel,  M. A. Watson,  
 C. F. Williams,  Q. Wu,  X. Xu,  Jun Yang,  W. Zhang,  Yan Zhao

 Please cite Q-Chem as follows:
 Y. Shao et al., Mol. Phys. 113, 184-215 (2015)
 DOI: 10.1080/00268976.2014.952696

 Q-Chem 5.4.0 for Intel X86 EM64T Linux

 Parts of Q-Chem use Armadillo 9.800.1 (Horizon Scraper).
 http://arma.sourceforge.net/

 Q-Chem begins on Sun Jul 10 09:58:48 2022  

 Host: 
0

     Scratch files written to ./qchem2169541//
 May1621 |scratch|qcdevops|jenkins|workspace|build_RNUM    
 Processing $rem in /cm/shared/apps/spack/cpu/opt/spack/linux-centos8-zen2/gcc-10.2.0/qchem-5.4-akfmr7b3t57bfs6qan3padb2wnb2i7cl/config/preferences:
 Processing $rem in /home/theleonzhang/.qchemrc:
 Symmetry turned off for PCM/SM12/SMD calculation
 Core orbitals will be frozen

 Checking the input file for inconsistencies... 	...done.

--------------------------------------------------------------
User input:
--------------------------------------------------------------
$molecule
0 1
C	-0.341855	-0.485421	0.019118
C	0.089945	0.262479	1.118518
C	0.781945	1.460979	0.795818
H	-0.094455	-0.056921	2.155218
C	0.892245	1.652079	-0.593382
S	0.129345	0.330679	-1.467682
C	1.325845	2.402979	1.833718
H	1.113045	2.034379	2.855818
H	0.880145	3.415779	1.745318
H	2.425845	2.523379	1.745318
C	-0.341855	-1.926121	0.019118
H	0.352445	-1.925821	-0.808182
H	0.285645	-2.629921	0.545718
H	-1.067455	-2.445021	-0.589682
H	1.366945	2.474079	-1.142482
$end

$rem
JOBTYPE		SP
EXCHANGE	HF
CORRELATION	pRIMP2
BASIS		cc-pvtz
METHOD		rimp2
AUX_BASIS	rimp2-cc-pvtz
SOLVENT_METHOD	PCM
PURECART	11111
SYMMETRY	false
MEM_TOTAL	110000
SCF_CONVERGENCE = 6
THRESH=10
$end



$solvent
dielectric 4.90
$end
--------------------------------------------------------------
 ----------------------------------------------------------------
             Standard Nuclear Orientation (Angstroms)
    I     Atom           X                Y                Z
 ----------------------------------------------------------------
    1      C      -0.3418550000    -0.4854210000     0.0191180000
    2      C       0.0899450000     0.2624790000     1.1185180000
    3      C       0.7819450000     1.4609790000     0.7958180000
    4      H      -0.0944550000    -0.0569210000     2.1552180000
    5      C       0.8922450000     1.6520790000    -0.5933820000
    6      S       0.1293450000     0.3306790000    -1.4676820000
    7      C       1.3258450000     2.4029790000     1.8337180000
    8      H       1.1130450000     2.0343790000     2.8558180000
    9      H       0.8801450000     3.4157790000     1.7453180000
   10      H       2.4258450000     2.5233790000     1.7453180000
   11      C      -0.3418550000    -1.9261210000     0.0191180000
   12      H       0.3524450000    -1.9258210000    -0.8081820000
   13      H       0.2856450000    -2.6299210000     0.5457180000
   14      H      -1.0674550000    -2.4450210000    -0.5896820000
   15      H       1.3669450000     2.4740790000    -1.1424820000
 ----------------------------------------------------------------
 Nuclear Repulsion Energy =         346.55288505 hartrees
 There are       30 alpha and       30 beta electrons

 Q-Chem warning in module forms1/BasisType.C, line 2236:

 You are not using the predefined 5D/6D in this basis set.

 Requested basis set is cc-pVTZ
 There are 120 shells and 326 basis functions

 Total QAlloc Memory Limit 110000 MB
 Mega-Array Size       188 MB
 MEM_STATIC part       192 MB
 Discretize the solute cavity surface with Lebedev spheres
	Using 110 Lebedev grid points for each H atom
	Using 194 Lebedev grid points for other atoms
	Atomic van der Waals radii will be scaled by 1.20
 Remove points where switching function is < 1.0e-08
 Keep 1047 surface tesserae and discard 1191 interior tesserae
 Molecular Surface Area = 157.950 Angst**2

                       Distance Matrix (Angstroms)
             C (  1)   C (  2)   C (  3)   H (  4)   C (  5)   S (  6)
   C (  2)  1.398029
   C (  3)  2.377953  1.421056
   H (  4)  2.192656  1.100348  2.218122
   C (  5)  2.543043  2.346332  1.406614  3.383646
   S (  6)  1.760291  2.587399  2.612833  3.650442  1.758555
   C (  7)  3.796953  2.573072  1.503472  2.858622  2.577339  4.077411
   H (  8)  4.063618  2.684134  2.163796  2.514445  3.477339  4.750043
   H (  9)  4.437613  3.310679  2.175416  3.630084  2.929215  4.517180
   H ( 10)  4.437658  3.310736  2.175466  3.630135  2.929268  4.517213
   C ( 11)  1.440700  2.486986  3.652210  2.849217  3.834276  2.743310
   H ( 12)  1.800342  2.927411  3.771962  3.531890  3.624761  2.361463
   H ( 13)  2.295636  2.955059  4.128478  3.058643  4.472252  3.583764
   H ( 14)  2.176503  3.404127  4.538362  3.766195  4.541659  3.147654
   H ( 15)  3.609425  3.410869  2.263980  4.406413  1.096602  2.496312
             C (  7)   H (  8)   H (  9)   H ( 10)   C ( 11)   H ( 12)
   H (  8)  1.107176
   H (  9)  1.110057  1.787657
   H ( 10)  1.110095  1.787673  1.784815
   C ( 11)  4.981476  5.084207  5.745341  5.517063
   H ( 12)  5.163880  5.448540  5.944032  5.533058  1.080036
   H ( 13)  5.298211  5.270374  6.192169  5.707539  1.079999  1.527503
   H ( 14)  5.924851  6.057316  6.602602  6.506948  1.079995  1.527556
   H ( 15)  2.977333  4.030410  3.076225  3.076213  4.861180  4.527702
             H ( 13)   H ( 14)
   H ( 14)  1.776007
   H ( 15)  5.483616  5.516288
 
 Requested basis set is rimp2-cc-pVTZ
 There are 250 shells and 848 basis functions
 A cutoff of  1.0D-10 yielded   6227 shell pairs
 There are     45663 function pairs (     58717 Cartesian)
 Smallest overlap matrix eigenvalue = 1.16E-04

 Scale SEOQF with 1.000000e-01/1.000000e-01/1.000000e-01

 Standard Electronic Orientation quadrupole field applied
 Nucleus-field energy     =     0.0000000012 hartrees
 Guess from superposition of atomic densities
 Warning:  Energy on first SCF cycle will be non-variational
 SAD guess density has 60.000000 electrons

 -----------------------------------------------------------------------
  General SCF calculation program by
  Eric Jon Sundstrom, Paul Horn, Yuezhi Mao, Dmitri Zuev, Alec White,
  David Stuck, Shaama M.S., Shane Yost, Joonho Lee, David Small,
  Daniel Levine, Susi Lehtola, Hugh Burton, Evgeny Epifanovsky,
  Bang C. Huynh
 -----------------------------------------------------------------------
 Hartree-Fock
 A restricted SCF calculation will be
 performed using DIIS
 SCF converges when DIIS error is below 1.0e-06
 ---------------------------------------
  Cycle       Energy         DIIS error
 ---------------------------------------
    1    -632.1364707356      2.93e-02  
    2    -629.3221910193      1.93e-03  
    3    -629.3926686233      6.73e-04  
    4    -629.4001354760      3.39e-04  
    5    -629.4021884120      6.46e-05  
    6    -629.4023299116      2.66e-05  
    7    -629.4023672671      1.20e-05  
    8    -629.4023779625      5.08e-06  
    9    -629.4023795741      1.85e-06  
   10    -629.4023797885      6.33e-07  Convergence criterion met
 ---------------------------------------
 SCF time:   CPU 145.44s  wall 146.00s 

************** Final PCM Free Energy Summary **************
 G_electrostatic  =      -0.00507666 hartree =      -3.18565131 kcal/mol
 G_cavitation     =       0.00000000 hartree =       0.00000000 kcal/mol
 G_dispersion     =       0.00000000 hartree =       0.00000000 kcal/mol
 G_repulsion      =       0.00000000 hartree =       0.00000000 kcal/mol
 --------------------------------------------------
 Non-electrostatic Free Energy =       0.00000000 hartree =       0.00000000 kcal/mol
 Total                         =      -0.00507666 hartree =      -3.18565131 kcal/mol
 --------------------------------------------------
 SCF Energy (H0 + V/2)                       =    -629.40237979 
 Solute Internal Energy (H0)                 =    -629.39730313 
 Total Free Energy (H0 + V/2 + non-elec)     =    -629.40237979 hartree
                                             = -394955.95438720 kcal/mol
***********************************************************

 SCF   energy in the final basis set =     -629.4023797885
 Total energy in the final basis set =     -629.4023797885


 --------------------------------------------------------------
  Generalized many-body perturbation theory program
  by Joonho Lee, Fazle Rob, Xintian Feng, Evgeny Epifanovsky

 No regularization used 
 (reg. param. = 0.0000e+00)
  (P|Q)^-1/2 Time:  CPU 0.51 s  wall 0.51 s

 In RI-MP2 calculation: 
 # of frozen core orbitals: 11

 Components of the RIMP2 correlation energy:
        aaaa    correlation energy =        -0.1459264219 a.u.
        abab    correlation energy =        -0.8886536991 a.u.
        bbbb    correlation energy =        -0.1459264219 a.u.
        non-Brillouin singles      =        -0.0000000000 a.u.
        total same-spin energy     =        -0.2918528438 a.u.
        total opposite-spin energy =        -0.8886536991 a.u.

 Total  RIMP2   correlation energy =        -1.1805065429 a.u.
        RIMP2         total energy =      -630.5828863314 a.u.

 RI-MP2 Energy Time:  CPU 12.62 s  wall 12.64 s
 
 --------------------------------------------------------------
 
                    Orbital Energies (a.u.)
 --------------------------------------------------------------
 
 Alpha MOs
 -- Occupied --
-91.9754 -11.2727 -11.2603 -11.2471 -11.2328 -11.2271 -11.2146  -8.9761
 -6.6570  -6.6564  -6.6558  -1.1642  -1.0560  -0.9945  -0.9447  -0.8804
 -0.7483  -0.7204  -0.6475  -0.5873  -0.5787  -0.5651  -0.5525  -0.5477
 -0.5117  -0.4847  -0.4627  -0.4466  -0.3392  -0.2954
 -- Virtual --
  0.0923   0.1445   0.1533   0.1745   0.1874   0.1891   0.2060   0.2227
  0.2319   0.2455   0.2504   0.2553   0.2914   0.3206   0.3454   0.3538
  0.3745   0.4042   0.4109   0.4318   0.4378   0.4575   0.4686   0.4747
  0.4871   0.4909   0.5149   0.5293   0.5429   0.5574   0.5646   0.5886
  0.5970   0.6023   0.6082   0.6162   0.6266   0.6373   0.6403   0.6490
  0.6572   0.6613   0.6899   0.7080   0.7191   0.7401   0.7658   0.7904
  0.8026   0.8102   0.8376   0.8619   0.8674   0.8916   0.8978   0.9311
  0.9584   0.9620   1.0005   1.0188   1.0262   1.0521   1.0624   1.0722
  1.0836   1.0912   1.1124   1.1423   1.1705   1.1880   1.1944   1.2138
  1.2213   1.2394   1.2486   1.2696   1.2779   1.2901   1.3082   1.3314
  1.3619   1.3943   1.4040   1.4200   1.4266   1.4363   1.4460   1.4729
  1.4831   1.5008   1.5092   1.5263   1.5399   1.5501   1.5753   1.5777
  1.5865   1.6371   1.6429   1.6714   1.6804   1.7009   1.7180   1.7367
  1.7581   1.7835   1.7965   1.8389   1.8903   1.9250   1.9501   1.9637
  1.9851   2.0495   2.1127   2.1202   2.1666   2.1910   2.2027   2.2107
  2.2676   2.2775   2.3597   2.4226   2.4660   2.4802   2.5102   2.5444
  2.5623   2.5790   2.6354   2.6595   2.6689   2.6938   2.7042   2.7258
  2.7369   2.7533   2.7862   2.7966   2.8187   2.8394   2.8444   2.8943
  2.9141   2.9271   2.9706   2.9716   3.0155   3.0363   3.0510   3.0610
  3.0880   3.1039   3.1119   3.1426   3.1508   3.1650   3.1755   3.2038
  3.2135   3.2528   3.2710   3.2758   3.2805   3.2978   3.3142   3.3345
  3.3531   3.3610   3.3717   3.3914   3.4042   3.4163   3.4260   3.4349
  3.4400   3.4625   3.4824   3.4960   3.5133   3.5255   3.5363   3.5747
  3.5833   3.6045   3.6161   3.6211   3.6375   3.6576   3.6777   3.6804
  3.6957   3.7176   3.7234   3.7439   3.7564   3.7627   3.7976   3.8025
  3.8179   3.8302   3.8750   3.8834   3.8896   3.9225   3.9378   3.9583
  3.9669   4.0089   4.0142   4.0207   4.0400   4.0693   4.0992   4.1058
  4.1209   4.1453   4.1612   4.1884   4.2223   4.2254   4.2535   4.2635
  4.2772   4.2898   4.3298   4.3383   4.3483   4.3621   4.3862   4.4035
  4.4133   4.4308   4.4404   4.4768   4.4811   4.5171   4.5518   4.5953
  4.6027   4.6077   4.6332   4.6671   4.7195   4.7385   4.7565   4.7798
  4.7989   4.8204   4.8412   4.8746   4.8959   4.9372   5.0483   5.0801
  5.1057   5.1537   5.1829   5.1948   5.2071   5.2578   5.2878   5.3226
  5.3674   5.4067   5.4148   5.4470   5.4770   5.5199   5.5482   5.5621
  5.6064   5.6172   5.6233   5.6472   5.6996   5.8123   5.8326   5.8734
  5.9319   5.9559   6.0411   6.1223   6.2279   6.2403   6.2799   6.3535
  6.4244   6.5557   9.2417  11.4532  12.8647  13.6476  14.1937  14.4662
 --------------------------------------------------------------
 
          Ground-State Mulliken Net Atomic Charges

     Atom                 Charge (a.u.)
  ----------------------------------------
      1 C                     0.031866
      2 C                    -0.284515
      3 C                     0.048463
      4 H                     0.179559
      5 C                    -0.249821
      6 S                    -0.006324
      7 C                    -0.270837
      8 H                     0.101654
      9 H                     0.107588
     10 H                     0.106365
     11 C                    -0.373890
     12 H                     0.133231
     13 H                     0.157968
     14 H                     0.124592
     15 H                     0.194103
  ----------------------------------------
  Sum of atomic charges =     0.000000

 -----------------------------------------------------------------
                    Cartesian Multipole Moments
 -----------------------------------------------------------------
    Charge (ESU x 10^10)
                -0.0000
    Dipole Moment (Debye)
         X       1.2711      Y      -0.1161      Z       1.0459
       Tot       1.6502
    Quadrupole Moments (Debye-Ang)
        XX     -52.2486     XY       2.8407     YY     -44.6722
        XZ       0.4396     YZ       1.1287     ZZ     -48.5774
    Octopole Moments (Debye-Ang^2)
       XXX     -52.6060    XXY     -21.4761    XYY      -7.6712
       YYY     -69.8604    XXZ      -2.8206    XYZ      -2.8745
       YYZ      -5.5784    XZZ     -15.3477    YZZ     -20.3932
       ZZZ       2.4841
    Hexadecapole Moments (Debye-Ang^3)
      XXXX    -219.7028   XXXY    -135.7274   XXYY    -148.2176
      XYYY    -129.4425   YYYY    -680.2509   XXXZ     -47.8806
      XXYZ     -29.3440   XYYZ     -17.0501   YYYZ     -88.7915
      XXZZ    -120.0625   XYZZ     -37.8976   YYZZ    -193.2172
      XZZZ     -52.6987   YZZZ     -89.6813   ZZZZ    -482.4510
 -----------------------------------------------------------------
 Total job time:  159.20s(wall), 158.43s(cpu) 
 Sun Jul 10 10:01:27 2022

        *************************************************************
        *                                                           *
        *  Thank you very much for using Q-Chem.  Have a nice day.  *
        *                                                           *
        *************************************************************


remove work dirs ./qchem2169541.0 -- ./qchem2169541.-1
rm -rf ./qchem2169541
