You are running Q-Chem version: 5.4.0

#
# job setting
#
local host:  exp-5-33
current dir: /expanse/lustre/scratch/theleonzhang/temp_project/Hydrogenated_Impropers_Test
input file:  Methylthiophene_Phi_30_Theta_250_Methylthiophene_Hydrogenated_Improper_Alternate.qcin
output file: 
nprocs     : 0
nthreads   : 1
#
# qchem installation setting
#
QC:          /cm/shared/apps/spack/cpu/opt/spack/linux-centos8-zen2/gcc-10.2.0/qchem-5.4-akfmr7b3t57bfs6qan3padb2wnb2i7cl
QCAUX:       /cm/shared/apps/spack/cpu/opt/spack/linux-centos8-zen2/gcc-10.2.0/qchem-5.4-akfmr7b3t57bfs6qan3padb2wnb2i7cl/qcaux
QCPROG:      /cm/shared/apps/spack/cpu/opt/spack/linux-centos8-zen2/gcc-10.2.0/qchem-5.4-akfmr7b3t57bfs6qan3padb2wnb2i7cl/exe/qcprog.exe_s
QCPROG_S:    /cm/shared/apps/spack/cpu/opt/spack/linux-centos8-zen2/gcc-10.2.0/qchem-5.4-akfmr7b3t57bfs6qan3padb2wnb2i7cl/exe/qcprog.exe_s
PARALLEL:    -DSERIAL
QCMPI:       mpich
#
# qchem directory setting
#
qcrun:       qchem2189957
QCSCRATCH:   .
QCLOCALSCR:  
QCTMPDIR:    .
QCFILEPREF:  ./qchem2189957
QCSAVEDIR:   
workdirs:    ./qchem2189957
workdir0:    ./qchem2189957
partmpdirs =  
#
# parallel setting
#
QCRSH:           ssh
QCMPI:           mpich
QCMPIRUN:        /cm/shared/apps/spack/cpu/opt/spack/linux-centos8-zen2/gcc-10.2.0/qchem-5.4-akfmr7b3t57bfs6qan3padb2wnb2i7cl/bin/mpi/mpirun_qchem
QCMACHINEFILE:   ./qchem2189957/hostfile

#
# env setting
#
exported envs:   QC QCAUX QCSCRATCH QCRUNNAME QCFILEPREF QCPROG QCPROG_S GUIFILE

Running Job 1 of 1 Methylthiophene_Phi_30_Theta_250_Methylthiophene_Hydrogenated_Improper_Alternate.qcin
qchem Methylthiophene_Phi_30_Theta_250_Methylthiophene_Hydrogenated_Improper_Alternate.qcin_2189957.0 ./qchem2189957/ 0
/cm/shared/apps/spack/cpu/opt/spack/linux-centos8-zen2/gcc-10.2.0/qchem-5.4-akfmr7b3t57bfs6qan3padb2wnb2i7cl/exe/qcprog.exe_s Methylthiophene_Phi_30_Theta_250_Methylthiophene_Hydrogenated_Improper_Alternate.qcin_2189957.0 ./qchem2189957/
                  Welcome to Q-Chem
     A Quantum Leap Into The Future Of Chemistry


 Q-Chem 5.4, Q-Chem, Inc., Pleasanton, CA (2021)

 License issued to: University of California, San Diego (site)

 E. Epifanovsky,  A. T. B. Gilbert,  Xintian Feng,  Joonho Lee,  Yuezhi Mao,  
 N. Mardirossian,  P. Pokhilko,  A. White,  M. Wormit,  M. P. Coons,  
 A. L. Dempwolff,  Zhengting Gan,  D. Hait,  P. R. Horn,  L. D. Jacobson,  
 I. Kaliman,  J. Kussmann,  A. W. Lange,  Ka Un Lao,  D. S. Levine,  Jie Liu,  
 S. C. McKenzie,  A. F. Morrison,  K. Nanda,  F. Plasser,  D. R. Rehn,  
 M. L. Vidal,  Zhi-Qiang You,  Ying Zhu,  B. Alam,  B. Albrecht,  
 A. Aldossary,  E. Alguire,  J. H. Andersen,  D. Barton,  K. Begam,  A. Behn,  
 Y. A. Bernard,  E. J. Berquist,  H. Burton,  A. Carreras,  K. Carter-Fenk,  
 R. Chakraborty,  A. D. Chien,  K. D. Closser,  V. Cofer-Shabica,  
 S. Dasgupta,  Jia Deng,  M. de Wergifosse,  M. Diedenhofen,  Hainam Do,  
 S. Ehlert,  Po-Tung Fang,  S. Fatehi,  Qingguo Feng,  J. Gayvert,  
 Qinghui Ge,  G. Gidofalvi,  M. Goldey,  J. Gomes,  C. Gonzalez-Espinoza,  
 S. Gulania,  A. Gunina,  M. W. D. Hanson-Heine,  P. H. P. Harbach,  
 A. W. Hauser,  M. F. Herbst,  M. Hernandez Vera,  M. Hodecker,  
 Z. C. Holden,  S. Houck,  Xunkun Huang,  Kerwin Hui,  B. C. Huynh,  
 M. Ivanov,  Hyunjun Ji,  Hanjie Jiang,  B. Kaduk,  S. Kaehler,  
 K. Khistyaev,  Jaehoon Kim,  P. Klunzinger,  Z. Koczor-Benda,  
 Joong Hoon Koh,  D. Kosenkov,  L. Koulias,  T. Kowalczyk,  C. M. Krauter,  
 K. Kue,  A. Kunitsa,  T. Kus,  A. Landau,  K. V. Lawler,  D. Lefrancois,  
 S. Lehtola,  Rain Li,  Yi-Pei Li,  Jiashu Liang,  M. Liebenthal,  
 Hung-Hsuan Lin,  You-Sheng Lin,  Fenglai Liu,  Kuan-Yu Liu,  
 M. Loipersberger,  A. Luenser,  A. Manjanath,  P. Manohar,  E. Mansoor,  
 S. F. Manzer,  Shan-Ping Mao,  A. V. Marenich,  T. Markovich,  S. Mason,  
 S. A. Maurer,  P. F. McLaughlin,  M. F. S. J. Menger,  J.-M. Mewes,  
 S. A. Mewes,  P. Morgante,  J. W. Mullinax,  T. S. Nguyen-Beck,  
 K. J. Oosterbaan,  G. Paran,  Alexander C. Paul,  Suranjan K. Paul,  
 F. Pavosevic,  Zheng Pei,  S. Prager,  E. I. Proynov,  E. Ramos,  B. Rana,  
 A. E. Rask,  A. Rettig,  R. M. Richard,  F. Rob,  E. Rossomme,  T. Scheele,  
 M. Scheurer,  M. Schneider,  N. Sergueev,  S. M. Sharada,  W. Skomorowski,  
 D. W. Small,  C. J. Stein,  Yu-Chuan Su,  E. J. Sundstrom,  Zhen Tao,  
 J. Thirman,  T. Tsuchimochi,  N. M. Tubman,  S. P. Veccham,  O. Vydrov,  
 J. Wenzel,  J. Witte,  A. Yamada,  Kun Yao,  S. Yeganeh,  S. R. Yost,  
 A. Zech,  Igor Ying Zhang,  Xing Zhang,  Yu Zhang,  D. Zuev,  
 A. Aspuru-Guzik,  A. T. Bell,  N. A. Besley,  K. B. Bravaya,  B. R. Brooks,  
 D. Casanova,  Jeng-Da Chai,  S. Coriani,  C. J. Cramer,  
 A. E. DePrince, III,  R. A. DiStasio Jr.,  A. Dreuw,  B. D. Dunietz,  
 T. R. Furlani,  W. A. Goddard III,  S. Grimme,  S. Hammes-Schiffer,  
 T. Head-Gordon,  W. J. Hehre,  Chao-Ping Hsu,  T.-C. Jagau,  Yousung Jung,  
 A. Klamt,  Jing Kong,  D. S. Lambrecht,  WanZhen Liang,  N. J. Mayhall,  
 C. W. McCurdy,  J. B. Neaton,  C. Ochsenfeld,  J. A. Parkhill,  R. Peverati,  
 V. A. Rassolov,  Yihan Shao,  L. V. Slipchenko,  T. Stauch,  R. P. Steele,  
 J. E. Subotnik,  A. J. W. Thom,  A. Tkatchenko,  D. G. Truhlar,  
 T. Van Voorhis,  T. A. Wesolowski,  K. B. Whaley,  H. L. Woodcock III,  
 P. M. Zimmerman,  S. Faraji,  P. M. W. Gill,  M. Head-Gordon,  
 J. M. Herbert,  A. I. Krylov

 Contributors to earlier versions of Q-Chem not listed above: 
 R. D. Adamson,  B. Austin,  R. Baer,  J. Baker,  G. J. O. Beran,  
 K. Brandhorst,  S. T. Brown,  E. F. C. Byrd,  A. K. Chakraborty,  
 G. K. L. Chan,  Chun-Min Chang,  Yunqing Chen,  C.-L. Cheng,  
 Siu Hung Chien,  D. M. Chipman,  D. L. Crittenden,  H. Dachsel,  
 R. J. Doerksen,  A. D. Dutoi,  R. G. Edgar,  J. Fosso-Tande,  
 L. Fusti-Molnar,  D. Ghosh,  A. Ghysels,  A. Golubeva-Zadorozhnaya,  
 J. Gonthier,  M. S. Gordon,  S. R. Gwaltney,  G. Hawkins,  J. E. Herr,  
 A. Heyden,  S. Hirata,  E. G. Hohenstein,  G. Kedziora,  F. J. Keil,  
 C. Kelley,  Jihan Kim,  R. A. King,  R. Z. Khaliullin,  P. P. Korambath,  
 W. Kurlancheek,  A. Laurent,  A. M. Lee,  M. S. Lee,  S. V. Levchenko,  
 Ching Yeh Lin,  D. Liotard,  E. Livshits,  R. C. Lochan,  I. Lotan,  
 L. A. Martinez-Martinez,  P. E. Maslen,  N. Nair,  D. P. O'Neill,  
 D. Neuhauser,  E. Neuscamman,  C. M. Oana,  R. Olivares-Amaya,  R. Olson,  
 T. M. Perrine,  B. Peters,  P. A. Pieniazek,  A. Prociuk,  Y. M. Rhee,  
 J. Ritchie,  M. A. Rohrdanz,  E. Rosta,  N. J. Russ,  H. F. Schaefer III,  
 M. W. Schmidt,  N. E. Schultz,  S. Sharma,  N. Shenvi,  C. D. Sherrill,  
 A. C. Simmonett,  A. Sodt,  T. Stein,  D. Stuck,  K. S. Thanthiriwatte,  
 V. Vanovschi,  L. Vogt,  Tao Wang,  A. Warshel,  M. A. Watson,  
 C. F. Williams,  Q. Wu,  X. Xu,  Jun Yang,  W. Zhang,  Yan Zhao

 Please cite Q-Chem as follows:
 Y. Shao et al., Mol. Phys. 113, 184-215 (2015)
 DOI: 10.1080/00268976.2014.952696

 Q-Chem 5.4.0 for Intel X86 EM64T Linux

 Parts of Q-Chem use Armadillo 9.800.1 (Horizon Scraper).
 http://arma.sourceforge.net/

 Q-Chem begins on Sun Jul 10 10:30:38 2022  

 Host: 
0

     Scratch files written to ./qchem2189957//
 May1621 |scratch|qcdevops|jenkins|workspace|build_RNUM    
 Processing $rem in /cm/shared/apps/spack/cpu/opt/spack/linux-centos8-zen2/gcc-10.2.0/qchem-5.4-akfmr7b3t57bfs6qan3padb2wnb2i7cl/config/preferences:
 Processing $rem in /home/theleonzhang/.qchemrc:
 Symmetry turned off for PCM/SM12/SMD calculation
 Core orbitals will be frozen

 Checking the input file for inconsistencies... 	...done.

--------------------------------------------------------------
User input:
--------------------------------------------------------------
$molecule
0 1
C	-0.341376	-0.485421	0.010669
C	0.090424	0.262479	1.110069
C	0.782424	1.460979	0.787369
H	-0.093976	-0.056921	2.146769
C	0.892724	1.652079	-0.601831
S	0.129824	0.330679	-1.476131
C	1.326324	2.402979	1.825269
H	1.113524	2.034379	2.847369
H	0.880624	3.415779	1.736869
H	2.426324	2.523379	1.736869
C	-0.341376	-1.926121	0.010669
H	0.027924	-1.925821	1.025569
H	-1.111176	-2.629921	0.290769
H	0.548624	-2.445021	-0.313231
H	1.367424	2.474079	-1.150931
$end

$rem
JOBTYPE		SP
EXCHANGE	HF
CORRELATION	pRIMP2
BASIS		cc-pvtz
METHOD		rimp2
AUX_BASIS	rimp2-cc-pvtz
SOLVENT_METHOD	PCM
PURECART	11111
SYMMETRY	false
MEM_TOTAL	110000
SCF_CONVERGENCE = 6
THRESH=10
$end



$solvent
dielectric 4.90
$end
--------------------------------------------------------------
 ----------------------------------------------------------------
             Standard Nuclear Orientation (Angstroms)
    I     Atom           X                Y                Z
 ----------------------------------------------------------------
    1      C      -0.3413760000    -0.4854210000     0.0106690000
    2      C       0.0904240000     0.2624790000     1.1100690000
    3      C       0.7824240000     1.4609790000     0.7873690000
    4      H      -0.0939760000    -0.0569210000     2.1467690000
    5      C       0.8927240000     1.6520790000    -0.6018310000
    6      S       0.1298240000     0.3306790000    -1.4761310000
    7      C       1.3263240000     2.4029790000     1.8252690000
    8      H       1.1135240000     2.0343790000     2.8473690000
    9      H       0.8806240000     3.4157790000     1.7368690000
   10      H       2.4263240000     2.5233790000     1.7368690000
   11      C      -0.3413760000    -1.9261210000     0.0106690000
   12      H       0.0279240000    -1.9258210000     1.0255690000
   13      H      -1.1111760000    -2.6299210000     0.2907690000
   14      H       0.5486240000    -2.4450210000    -0.3132310000
   15      H       1.3674240000     2.4740790000    -1.1509310000
 ----------------------------------------------------------------
 Nuclear Repulsion Energy =         346.10740123 hartrees
 There are       30 alpha and       30 beta electrons

 Q-Chem warning in module forms1/BasisType.C, line 2236:

 You are not using the predefined 5D/6D in this basis set.

 Requested basis set is cc-pVTZ
 There are 120 shells and 326 basis functions

 Total QAlloc Memory Limit 110000 MB
 Mega-Array Size       188 MB
 MEM_STATIC part       192 MB
 Discretize the solute cavity surface with Lebedev spheres
	Using 110 Lebedev grid points for each H atom
	Using 194 Lebedev grid points for other atoms
	Atomic van der Waals radii will be scaled by 1.20
 Remove points where switching function is < 1.0e-08
 Keep 1047 surface tesserae and discard 1191 interior tesserae
 Molecular Surface Area = 157.842 Angst**2

                       Distance Matrix (Angstroms)
             C (  1)   C (  2)   C (  3)   H (  4)   C (  5)   S (  6)
   C (  2)  1.398029
   C (  3)  2.377953  1.421056
   H (  4)  2.192656  1.100348  2.218122
   C (  5)  2.543043  2.346332  1.406614  3.383646
   S (  6)  1.760291  2.587399  2.612833  3.650442  1.758555
   C (  7)  3.796953  2.573072  1.503472  2.858622  2.577339  4.077411
   H (  8)  4.063618  2.684134  2.163796  2.514445  3.477339  4.750043
   H (  9)  4.437613  3.310679  2.175416  3.630084  2.929215  4.517180
   H ( 10)  4.437658  3.310736  2.175466  3.630135  2.929268  4.517213
   C ( 11)  1.440700  2.486986  3.652210  2.849217  3.834276  2.743310
   H ( 12)  1.800321  2.190823  3.477991  2.182828  4.024634  3.370561
   H ( 13)  2.295632  3.237449  4.535173  3.331630  4.811224  3.664310
   H ( 14)  2.176475  3.092941  4.064827  3.488202  4.121641  3.038460
   H ( 15)  3.609425  3.410869  2.263980  4.406413  1.096602  2.496312
             C (  7)   H (  8)   H (  9)   H ( 10)   C ( 11)   H ( 12)
   H (  8)  1.107176
   H (  9)  1.110057  1.787657
   H ( 10)  1.110095  1.787673  1.784815
   C ( 11)  4.981476  5.084207  5.745341  5.517063
   H ( 12)  4.589539  4.492290  5.455798  5.104278  1.080002
   H ( 13)  5.798808  5.765517  6.527554  6.415732  1.079992  1.527494
   H ( 14)  5.355474  5.511218  6.217886  5.693300  1.079939  1.527443
   H ( 15)  2.977333  4.030410  3.076225  3.076213  4.861180  5.088274
             H ( 13)   H ( 14)
   H ( 14)  1.775934
   H ( 15)  5.854295  5.056651
 
 Requested basis set is rimp2-cc-pVTZ
 There are 250 shells and 848 basis functions
 A cutoff of  1.0D-10 yielded   6238 shell pairs
 There are     45774 function pairs (     58858 Cartesian)
 Smallest overlap matrix eigenvalue = 1.28E-04

 Scale SEOQF with 1.000000e-01/1.000000e-01/1.000000e-01

 Standard Electronic Orientation quadrupole field applied
 Nucleus-field energy     =     0.0000000012 hartrees
 Guess from superposition of atomic densities
 Warning:  Energy on first SCF cycle will be non-variational
 SAD guess density has 60.000000 electrons

 -----------------------------------------------------------------------
  General SCF calculation program by
  Eric Jon Sundstrom, Paul Horn, Yuezhi Mao, Dmitri Zuev, Alec White,
  David Stuck, Shaama M.S., Shane Yost, Joonho Lee, David Small,
  Daniel Levine, Susi Lehtola, Hugh Burton, Evgeny Epifanovsky,
  Bang C. Huynh
 -----------------------------------------------------------------------
 Hartree-Fock
 A restricted SCF calculation will be
 performed using DIIS
 SCF converges when DIIS error is below 1.0e-06
 ---------------------------------------
  Cycle       Energy         DIIS error
 ---------------------------------------
    1    -632.1364654976      2.93e-02  
    2    -629.3258345327      1.91e-03  
    3    -629.3956219890      6.30e-04  
    4    -629.4026324097      3.15e-04  
    5    -629.4043880124      6.32e-05  
    6    -629.4045200167      2.49e-05  
    7    -629.4045542363      1.19e-05  
    8    -629.4045643917      4.87e-06  
    9    -629.4045660251      1.95e-06  
   10    -629.4045662229      5.09e-07  Convergence criterion met
 ---------------------------------------
 SCF time:   CPU 145.94s  wall 146.00s 

************** Final PCM Free Energy Summary **************
 G_electrostatic  =      -0.00532701 hartree =      -3.34275084 kcal/mol
 G_cavitation     =       0.00000000 hartree =       0.00000000 kcal/mol
 G_dispersion     =       0.00000000 hartree =       0.00000000 kcal/mol
 G_repulsion      =       0.00000000 hartree =       0.00000000 kcal/mol
 --------------------------------------------------
 Non-electrostatic Free Energy =       0.00000000 hartree =       0.00000000 kcal/mol
 Total                         =      -0.00532701 hartree =      -3.34275084 kcal/mol
 --------------------------------------------------
 SCF Energy (H0 + V/2)                       =    -629.40456622 
 Solute Internal Energy (H0)                 =    -629.39923921 
 Total Free Energy (H0 + V/2 + non-elec)     =    -629.40456622 hartree
                                             = -394957.32639553 kcal/mol
***********************************************************

 SCF   energy in the final basis set =     -629.4045662229
 Total energy in the final basis set =     -629.4045662229


 --------------------------------------------------------------
  Generalized many-body perturbation theory program
  by Joonho Lee, Fazle Rob, Xintian Feng, Evgeny Epifanovsky

 No regularization used 
 (reg. param. = 0.0000e+00)
  (P|Q)^-1/2 Time:  CPU 0.51 s  wall 0.51 s

 In RI-MP2 calculation: 
 # of frozen core orbitals: 11

 Components of the RIMP2 correlation energy:
        aaaa    correlation energy =        -0.1463278679 a.u.
        abab    correlation energy =        -0.8892932124 a.u.
        bbbb    correlation energy =        -0.1463278679 a.u.
        non-Brillouin singles      =        -0.0000000000 a.u.
        total same-spin energy     =        -0.2926557358 a.u.
        total opposite-spin energy =        -0.8892932124 a.u.

 Total  RIMP2   correlation energy =        -1.1819489482 a.u.
        RIMP2         total energy =      -630.5865151711 a.u.

 RI-MP2 Energy Time:  CPU 12.64 s  wall 12.66 s
 
 --------------------------------------------------------------
 
                    Orbital Energies (a.u.)
 --------------------------------------------------------------
 
 Alpha MOs
 -- Occupied --
-91.9756 -11.2721 -11.2608 -11.2473 -11.2357 -11.2277 -11.2132  -8.9757
 -6.6566  -6.6560  -6.6556  -1.1640  -1.0543  -0.9994  -0.9377  -0.8835
 -0.7431  -0.7260  -0.6465  -0.5914  -0.5778  -0.5673  -0.5576  -0.5422
 -0.5121  -0.4768  -0.4686  -0.4402  -0.3355  -0.3013
 -- Virtual --
  0.0906   0.1442   0.1557   0.1772   0.1864   0.1898   0.2002   0.2240
  0.2354   0.2445   0.2494   0.2698   0.2989   0.3101   0.3424   0.3647
  0.3740   0.3895   0.4084   0.4168   0.4343   0.4549   0.4688   0.4724
  0.4936   0.4987   0.5139   0.5322   0.5372   0.5470   0.5687   0.5829
  0.5981   0.6082   0.6122   0.6297   0.6379   0.6398   0.6452   0.6495
  0.6566   0.6661   0.6849   0.6916   0.7414   0.7531   0.7597   0.7662
  0.8068   0.8253   0.8286   0.8397   0.8641   0.8801   0.8901   0.9197
  0.9551   0.9739   1.0074   1.0184   1.0306   1.0445   1.0637   1.0744
  1.0814   1.1032   1.1348   1.1567   1.1691   1.1899   1.1971   1.2113
  1.2160   1.2250   1.2516   1.2557   1.2707   1.2984   1.3279   1.3377
  1.3422   1.3795   1.3914   1.3948   1.4224   1.4268   1.4466   1.4794
  1.4935   1.4993   1.5190   1.5299   1.5577   1.5625   1.5723   1.5791
  1.5953   1.6312   1.6417   1.6636   1.6733   1.7065   1.7146   1.7264
  1.7701   1.7823   1.8134   1.8246   1.8831   1.9098   1.9446   1.9599
  1.9906   2.0350   2.1036   2.1246   2.1619   2.1927   2.2166   2.2303
  2.2574   2.2720   2.3367   2.4093   2.4546   2.4870   2.5391   2.5615
  2.5758   2.5979   2.6378   2.6542   2.6683   2.6912   2.7143   2.7344
  2.7518   2.7728   2.7889   2.8106   2.8318   2.8369   2.8672   2.8780
  2.9004   2.9378   2.9576   2.9632   2.9742   3.0162   3.0414   3.0688
  3.0827   3.1110   3.1303   3.1391   3.1594   3.1776   3.1816   3.1948
  3.2110   3.2422   3.2570   3.2708   3.2753   3.2929   3.3112   3.3290
  3.3415   3.3540   3.3789   3.3936   3.4058   3.4082   3.4279   3.4313
  3.4496   3.4857   3.4937   3.5127   3.5266   3.5356   3.5521   3.5555
  3.5863   3.5912   3.6180   3.6256   3.6391   3.6427   3.6777   3.6883
  3.6946   3.7138   3.7274   3.7438   3.7497   3.7592   3.7881   3.7925
  3.8050   3.8313   3.8547   3.8898   3.9108   3.9142   3.9470   3.9546
  3.9737   3.9869   4.0140   4.0259   4.0632   4.0687   4.1061   4.1284
  4.1448   4.1497   4.1617   4.1721   4.2038   4.2206   4.2256   4.2398
  4.2744   4.2896   4.3012   4.3284   4.3580   4.3789   4.3938   4.4024
  4.4189   4.4287   4.4503   4.4685   4.4922   4.5225   4.5531   4.5797
  4.6124   4.6580   4.6695   4.6931   4.7128   4.7494   4.7840   4.7876
  4.8204   4.8316   4.8438   4.8900   4.9386   4.9448   5.0801   5.0865
  5.1097   5.1394   5.1801   5.1840   5.2344   5.2571   5.2871   5.3058
  5.3690   5.3976   5.4068   5.4391   5.4604   5.4963   5.5468   5.5661
  5.5797   5.6243   5.6278   5.6892   5.7297   5.8214   5.8272   5.8719
  5.9079   5.9690   6.0342   6.1077   6.2272   6.2370   6.2733   6.3630
  6.3977   6.4484   9.2039  11.5713  12.8790  13.7843  14.1950  14.2636
 --------------------------------------------------------------
 
          Ground-State Mulliken Net Atomic Charges

     Atom                 Charge (a.u.)
  ----------------------------------------
      1 C                     0.023327
      2 C                    -0.252330
      3 C                     0.031265
      4 H                     0.175985
      5 C                    -0.244269
      6 S                    -0.001699
      7 C                    -0.270740
      8 H                     0.101231
      9 H                     0.107157
     10 H                     0.106367
     11 C                    -0.373897
     12 H                     0.129242
     13 H                     0.138755
     14 H                     0.136681
     15 H                     0.192924
  ----------------------------------------
  Sum of atomic charges =     0.000000

 -----------------------------------------------------------------
                    Cartesian Multipole Moments
 -----------------------------------------------------------------
    Charge (ESU x 10^10)
                -0.0000
    Dipole Moment (Debye)
         X       1.0941      Y      -0.0203      Z       2.1347
       Tot       2.3988
    Quadrupole Moments (Debye-Ang)
        XX     -51.9471     XY       3.3885     YY     -44.8793
        XZ      -0.3305     YZ      -1.0731     ZZ     -48.6583
    Octopole Moments (Debye-Ang^2)
       XXX     -52.6275    XXY     -22.3914    XYY      -9.5794
       YYY     -68.8628    XXZ      -2.7967    XYZ      -0.3332
       YYZ      -1.6579    XZZ     -15.4108    YZZ     -19.9551
       ZZZ       1.1137
    Hexadecapole Moments (Debye-Ang^3)
      XXXX    -219.8538   XXXY    -135.7766   XXYY    -145.2681
      XYYY    -123.3659   YYYY    -682.0886   XXXZ     -46.5920
      XXYZ     -28.8352   XYYZ     -23.3986   YYYZ     -91.4530
      XXZZ    -120.4371   XYZZ     -38.4140   YYZZ    -195.1043
      XZZZ     -49.7233   YZZZ     -83.8199   ZZZZ    -481.7956
 -----------------------------------------------------------------
 Total job time:  159.92s(wall), 158.96s(cpu) 
 Sun Jul 10 10:33:18 2022

        *************************************************************
        *                                                           *
        *  Thank you very much for using Q-Chem.  Have a nice day.  *
        *                                                           *
        *************************************************************


remove work dirs ./qchem2189957.0 -- ./qchem2189957.-1
rm -rf ./qchem2189957
You are running Q-Chem version: 5.4.0

#
# job setting
#
local host:  exp-2-07
current dir: /expanse/lustre/scratch/theleonzhang/temp_project/Hydrogenated_Impropers_Test
input file:  Methylthiophene_Phi_30_Theta_250_Methylthiophene_Hydrogenated_Improper_Alternate.qcin
output file: 
nprocs     : 0
nthreads   : 1
#
# qchem installation setting
#
QC:          /cm/shared/apps/spack/cpu/opt/spack/linux-centos8-zen2/gcc-10.2.0/qchem-5.4-akfmr7b3t57bfs6qan3padb2wnb2i7cl
QCAUX:       /cm/shared/apps/spack/cpu/opt/spack/linux-centos8-zen2/gcc-10.2.0/qchem-5.4-akfmr7b3t57bfs6qan3padb2wnb2i7cl/qcaux
QCPROG:      /cm/shared/apps/spack/cpu/opt/spack/linux-centos8-zen2/gcc-10.2.0/qchem-5.4-akfmr7b3t57bfs6qan3padb2wnb2i7cl/exe/qcprog.exe_s
QCPROG_S:    /cm/shared/apps/spack/cpu/opt/spack/linux-centos8-zen2/gcc-10.2.0/qchem-5.4-akfmr7b3t57bfs6qan3padb2wnb2i7cl/exe/qcprog.exe_s
PARALLEL:    -DSERIAL
QCMPI:       mpich
#
# qchem directory setting
#
qcrun:       qchem1029036
QCSCRATCH:   .
QCLOCALSCR:  
QCTMPDIR:    .
QCFILEPREF:  ./qchem1029036
QCSAVEDIR:   
workdirs:    ./qchem1029036
workdir0:    ./qchem1029036
partmpdirs =  
#
# parallel setting
#
QCRSH:           ssh
QCMPI:           mpich
QCMPIRUN:        /cm/shared/apps/spack/cpu/opt/spack/linux-centos8-zen2/gcc-10.2.0/qchem-5.4-akfmr7b3t57bfs6qan3padb2wnb2i7cl/bin/mpi/mpirun_qchem
QCMACHINEFILE:   ./qchem1029036/hostfile

#
# env setting
#
exported envs:   QC QCAUX QCSCRATCH QCRUNNAME QCFILEPREF QCPROG QCPROG_S GUIFILE

Running Job 1 of 1 Methylthiophene_Phi_30_Theta_250_Methylthiophene_Hydrogenated_Improper_Alternate.qcin
qchem Methylthiophene_Phi_30_Theta_250_Methylthiophene_Hydrogenated_Improper_Alternate.qcin_1029036.0 ./qchem1029036/ 0
/cm/shared/apps/spack/cpu/opt/spack/linux-centos8-zen2/gcc-10.2.0/qchem-5.4-akfmr7b3t57bfs6qan3padb2wnb2i7cl/exe/qcprog.exe_s Methylthiophene_Phi_30_Theta_250_Methylthiophene_Hydrogenated_Improper_Alternate.qcin_1029036.0 ./qchem1029036/
                  Welcome to Q-Chem
     A Quantum Leap Into The Future Of Chemistry


 Q-Chem 5.4, Q-Chem, Inc., Pleasanton, CA (2021)

 License issued to: University of California, San Diego (site)

 E. Epifanovsky,  A. T. B. Gilbert,  Xintian Feng,  Joonho Lee,  Yuezhi Mao,  
 N. Mardirossian,  P. Pokhilko,  A. White,  M. Wormit,  M. P. Coons,  
 A. L. Dempwolff,  Zhengting Gan,  D. Hait,  P. R. Horn,  L. D. Jacobson,  
 I. Kaliman,  J. Kussmann,  A. W. Lange,  Ka Un Lao,  D. S. Levine,  Jie Liu,  
 S. C. McKenzie,  A. F. Morrison,  K. Nanda,  F. Plasser,  D. R. Rehn,  
 M. L. Vidal,  Zhi-Qiang You,  Ying Zhu,  B. Alam,  B. Albrecht,  
 A. Aldossary,  E. Alguire,  J. H. Andersen,  D. Barton,  K. Begam,  A. Behn,  
 Y. A. Bernard,  E. J. Berquist,  H. Burton,  A. Carreras,  K. Carter-Fenk,  
 R. Chakraborty,  A. D. Chien,  K. D. Closser,  V. Cofer-Shabica,  
 S. Dasgupta,  Jia Deng,  M. de Wergifosse,  M. Diedenhofen,  Hainam Do,  
 S. Ehlert,  Po-Tung Fang,  S. Fatehi,  Qingguo Feng,  J. Gayvert,  
 Qinghui Ge,  G. Gidofalvi,  M. Goldey,  J. Gomes,  C. Gonzalez-Espinoza,  
 S. Gulania,  A. Gunina,  M. W. D. Hanson-Heine,  P. H. P. Harbach,  
 A. W. Hauser,  M. F. Herbst,  M. Hernandez Vera,  M. Hodecker,  
 Z. C. Holden,  S. Houck,  Xunkun Huang,  Kerwin Hui,  B. C. Huynh,  
 M. Ivanov,  Hyunjun Ji,  Hanjie Jiang,  B. Kaduk,  S. Kaehler,  
 K. Khistyaev,  Jaehoon Kim,  P. Klunzinger,  Z. Koczor-Benda,  
 Joong Hoon Koh,  D. Kosenkov,  L. Koulias,  T. Kowalczyk,  C. M. Krauter,  
 K. Kue,  A. Kunitsa,  T. Kus,  A. Landau,  K. V. Lawler,  D. Lefrancois,  
 S. Lehtola,  Rain Li,  Yi-Pei Li,  Jiashu Liang,  M. Liebenthal,  
 Hung-Hsuan Lin,  You-Sheng Lin,  Fenglai Liu,  Kuan-Yu Liu,  
 M. Loipersberger,  A. Luenser,  A. Manjanath,  P. Manohar,  E. Mansoor,  
 S. F. Manzer,  Shan-Ping Mao,  A. V. Marenich,  T. Markovich,  S. Mason,  
 S. A. Maurer,  P. F. McLaughlin,  M. F. S. J. Menger,  J.-M. Mewes,  
 S. A. Mewes,  P. Morgante,  J. W. Mullinax,  T. S. Nguyen-Beck,  
 K. J. Oosterbaan,  G. Paran,  Alexander C. Paul,  Suranjan K. Paul,  
 F. Pavosevic,  Zheng Pei,  S. Prager,  E. I. Proynov,  E. Ramos,  B. Rana,  
 A. E. Rask,  A. Rettig,  R. M. Richard,  F. Rob,  E. Rossomme,  T. Scheele,  
 M. Scheurer,  M. Schneider,  N. Sergueev,  S. M. Sharada,  W. Skomorowski,  
 D. W. Small,  C. J. Stein,  Yu-Chuan Su,  E. J. Sundstrom,  Zhen Tao,  
 J. Thirman,  T. Tsuchimochi,  N. M. Tubman,  S. P. Veccham,  O. Vydrov,  
 J. Wenzel,  J. Witte,  A. Yamada,  Kun Yao,  S. Yeganeh,  S. R. Yost,  
 A. Zech,  Igor Ying Zhang,  Xing Zhang,  Yu Zhang,  D. Zuev,  
 A. Aspuru-Guzik,  A. T. Bell,  N. A. Besley,  K. B. Bravaya,  B. R. Brooks,  
 D. Casanova,  Jeng-Da Chai,  S. Coriani,  C. J. Cramer,  
 A. E. DePrince, III,  R. A. DiStasio Jr.,  A. Dreuw,  B. D. Dunietz,  
 T. R. Furlani,  W. A. Goddard III,  S. Grimme,  S. Hammes-Schiffer,  
 T. Head-Gordon,  W. J. Hehre,  Chao-Ping Hsu,  T.-C. Jagau,  Yousung Jung,  
 A. Klamt,  Jing Kong,  D. S. Lambrecht,  WanZhen Liang,  N. J. Mayhall,  
 C. W. McCurdy,  J. B. Neaton,  C. Ochsenfeld,  J. A. Parkhill,  R. Peverati,  
 V. A. Rassolov,  Yihan Shao,  L. V. Slipchenko,  T. Stauch,  R. P. Steele,  
 J. E. Subotnik,  A. J. W. Thom,  A. Tkatchenko,  D. G. Truhlar,  
 T. Van Voorhis,  T. A. Wesolowski,  K. B. Whaley,  H. L. Woodcock III,  
 P. M. Zimmerman,  S. Faraji,  P. M. W. Gill,  M. Head-Gordon,  
 J. M. Herbert,  A. I. Krylov

 Contributors to earlier versions of Q-Chem not listed above: 
 R. D. Adamson,  B. Austin,  R. Baer,  J. Baker,  G. J. O. Beran,  
 K. Brandhorst,  S. T. Brown,  E. F. C. Byrd,  A. K. Chakraborty,  
 G. K. L. Chan,  Chun-Min Chang,  Yunqing Chen,  C.-L. Cheng,  
 Siu Hung Chien,  D. M. Chipman,  D. L. Crittenden,  H. Dachsel,  
 R. J. Doerksen,  A. D. Dutoi,  R. G. Edgar,  J. Fosso-Tande,  
 L. Fusti-Molnar,  D. Ghosh,  A. Ghysels,  A. Golubeva-Zadorozhnaya,  
 J. Gonthier,  M. S. Gordon,  S. R. Gwaltney,  G. Hawkins,  J. E. Herr,  
 A. Heyden,  S. Hirata,  E. G. Hohenstein,  G. Kedziora,  F. J. Keil,  
 C. Kelley,  Jihan Kim,  R. A. King,  R. Z. Khaliullin,  P. P. Korambath,  
 W. Kurlancheek,  A. Laurent,  A. M. Lee,  M. S. Lee,  S. V. Levchenko,  
 Ching Yeh Lin,  D. Liotard,  E. Livshits,  R. C. Lochan,  I. Lotan,  
 L. A. Martinez-Martinez,  P. E. Maslen,  N. Nair,  D. P. O'Neill,  
 D. Neuhauser,  E. Neuscamman,  C. M. Oana,  R. Olivares-Amaya,  R. Olson,  
 T. M. Perrine,  B. Peters,  P. A. Pieniazek,  A. Prociuk,  Y. M. Rhee,  
 J. Ritchie,  M. A. Rohrdanz,  E. Rosta,  N. J. Russ,  H. F. Schaefer III,  
 M. W. Schmidt,  N. E. Schultz,  S. Sharma,  N. Shenvi,  C. D. Sherrill,  
 A. C. Simmonett,  A. Sodt,  T. Stein,  D. Stuck,  K. S. Thanthiriwatte,  
 V. Vanovschi,  L. Vogt,  Tao Wang,  A. Warshel,  M. A. Watson,  
 C. F. Williams,  Q. Wu,  X. Xu,  Jun Yang,  W. Zhang,  Yan Zhao

 Please cite Q-Chem as follows:
 Y. Shao et al., Mol. Phys. 113, 184-215 (2015)
 DOI: 10.1080/00268976.2014.952696

 Q-Chem 5.4.0 for Intel X86 EM64T Linux

 Parts of Q-Chem use Armadillo 9.800.1 (Horizon Scraper).
 http://arma.sourceforge.net/

 Q-Chem begins on Sun Jul 10 11:11:58 2022  

 Host: 
0

     Scratch files written to ./qchem1029036//
 May1621 |scratch|qcdevops|jenkins|workspace|build_RNUM    
 Processing $rem in /cm/shared/apps/spack/cpu/opt/spack/linux-centos8-zen2/gcc-10.2.0/qchem-5.4-akfmr7b3t57bfs6qan3padb2wnb2i7cl/config/preferences:
 Processing $rem in /home/theleonzhang/.qchemrc:
 Symmetry turned off for PCM/SM12/SMD calculation
 Core orbitals will be frozen

 Checking the input file for inconsistencies... 	...done.

--------------------------------------------------------------
User input:
--------------------------------------------------------------
$molecule
0 1
C	-0.341376	-0.485421	0.010669
C	0.090424	0.262479	1.110069
C	0.782424	1.460979	0.787369
H	-0.093976	-0.056921	2.146769
C	0.892724	1.652079	-0.601831
S	0.129824	0.330679	-1.476131
C	1.326324	2.402979	1.825269
H	1.113524	2.034379	2.847369
H	0.880624	3.415779	1.736869
H	2.426324	2.523379	1.736869
C	-0.341376	-1.926121	0.010669
H	0.027924	-1.925821	1.025569
H	-1.111176	-2.629921	0.290769
H	0.548624	-2.445021	-0.313231
H	1.367424	2.474079	-1.150931
$end

$rem
JOBTYPE		SP
EXCHANGE	HF
CORRELATION	pRIMP2
BASIS		cc-pvtz
METHOD		rimp2
AUX_BASIS	rimp2-cc-pvtz
SOLVENT_METHOD	PCM
PURECART	11111
SYMMETRY	false
MEM_TOTAL	110000
SCF_CONVERGENCE = 6
THRESH=10
$end



$solvent
dielectric 4.90
$end
--------------------------------------------------------------
 ----------------------------------------------------------------
             Standard Nuclear Orientation (Angstroms)
    I     Atom           X                Y                Z
 ----------------------------------------------------------------
    1      C      -0.3413760000    -0.4854210000     0.0106690000
    2      C       0.0904240000     0.2624790000     1.1100690000
    3      C       0.7824240000     1.4609790000     0.7873690000
    4      H      -0.0939760000    -0.0569210000     2.1467690000
    5      C       0.8927240000     1.6520790000    -0.6018310000
    6      S       0.1298240000     0.3306790000    -1.4761310000
    7      C       1.3263240000     2.4029790000     1.8252690000
    8      H       1.1135240000     2.0343790000     2.8473690000
    9      H       0.8806240000     3.4157790000     1.7368690000
   10      H       2.4263240000     2.5233790000     1.7368690000
   11      C      -0.3413760000    -1.9261210000     0.0106690000
   12      H       0.0279240000    -1.9258210000     1.0255690000
   13      H      -1.1111760000    -2.6299210000     0.2907690000
   14      H       0.5486240000    -2.4450210000    -0.3132310000
   15      H       1.3674240000     2.4740790000    -1.1509310000
 ----------------------------------------------------------------
 Nuclear Repulsion Energy =         346.10740123 hartrees
 There are       30 alpha and       30 beta electrons

 Q-Chem warning in module forms1/BasisType.C, line 2236:

 You are not using the predefined 5D/6D in this basis set.

 Requested basis set is cc-pVTZ
 There are 120 shells and 326 basis functions

 Total QAlloc Memory Limit 110000 MB
 Mega-Array Size       188 MB
 MEM_STATIC part       192 MB
 Discretize the solute cavity surface with Lebedev spheres
	Using 110 Lebedev grid points for each H atom
	Using 194 Lebedev grid points for other atoms
	Atomic van der Waals radii will be scaled by 1.20
 Remove points where switching function is < 1.0e-08
 Keep 1047 surface tesserae and discard 1191 interior tesserae
 Molecular Surface Area = 157.842 Angst**2

                       Distance Matrix (Angstroms)
             C (  1)   C (  2)   C (  3)   H (  4)   C (  5)   S (  6)
   C (  2)  1.398029
   C (  3)  2.377953  1.421056
   H (  4)  2.192656  1.100348  2.218122
   C (  5)  2.543043  2.346332  1.406614  3.383646
   S (  6)  1.760291  2.587399  2.612833  3.650442  1.758555
   C (  7)  3.796953  2.573072  1.503472  2.858622  2.577339  4.077411
   H (  8)  4.063618  2.684134  2.163796  2.514445  3.477339  4.750043
   H (  9)  4.437613  3.310679  2.175416  3.630084  2.929215  4.517180
   H ( 10)  4.437658  3.310736  2.175466  3.630135  2.929268  4.517213
   C ( 11)  1.440700  2.486986  3.652210  2.849217  3.834276  2.743310
   H ( 12)  1.800321  2.190823  3.477991  2.182828  4.024634  3.370561
   H ( 13)  2.295632  3.237449  4.535173  3.331630  4.811224  3.664310
   H ( 14)  2.176475  3.092941  4.064827  3.488202  4.121641  3.038460
   H ( 15)  3.609425  3.410869  2.263980  4.406413  1.096602  2.496312
             C (  7)   H (  8)   H (  9)   H ( 10)   C ( 11)   H ( 12)
   H (  8)  1.107176
   H (  9)  1.110057  1.787657
   H ( 10)  1.110095  1.787673  1.784815
   C ( 11)  4.981476  5.084207  5.745341  5.517063
   H ( 12)  4.589539  4.492290  5.455798  5.104278  1.080002
   H ( 13)  5.798808  5.765517  6.527554  6.415732  1.079992  1.527494
   H ( 14)  5.355474  5.511218  6.217886  5.693300  1.079939  1.527443
   H ( 15)  2.977333  4.030410  3.076225  3.076213  4.861180  5.088274
             H ( 13)   H ( 14)
   H ( 14)  1.775934
   H ( 15)  5.854295  5.056651
 
 Requested basis set is rimp2-cc-pVTZ
 There are 250 shells and 848 basis functions
 A cutoff of  1.0D-10 yielded   6238 shell pairs
 There are     45774 function pairs (     58858 Cartesian)
 Smallest overlap matrix eigenvalue = 1.28E-04

 Scale SEOQF with 1.000000e-01/1.000000e-01/1.000000e-01

 Standard Electronic Orientation quadrupole field applied
 Nucleus-field energy     =     0.0000000012 hartrees
 Guess from superposition of atomic densities
 Warning:  Energy on first SCF cycle will be non-variational
 SAD guess density has 60.000000 electrons

 -----------------------------------------------------------------------
  General SCF calculation program by
  Eric Jon Sundstrom, Paul Horn, Yuezhi Mao, Dmitri Zuev, Alec White,
  David Stuck, Shaama M.S., Shane Yost, Joonho Lee, David Small,
  Daniel Levine, Susi Lehtola, Hugh Burton, Evgeny Epifanovsky,
  Bang C. Huynh
 -----------------------------------------------------------------------
 Hartree-Fock
 A restricted SCF calculation will be
 performed using DIIS
 SCF converges when DIIS error is below 1.0e-06
 ---------------------------------------
  Cycle       Energy         DIIS error
 ---------------------------------------
    1    -632.1364654976      2.93e-02  
    2    -629.3258345327      1.91e-03  
    3    -629.3956219890      6.30e-04  
    4    -629.4026324097      3.15e-04  
    5    -629.4043880124      6.32e-05  
    6    -629.4045200167      2.49e-05  
    7    -629.4045542363      1.19e-05  
    8    -629.4045643917      4.87e-06  
    9    -629.4045660251      1.95e-06  
   10    -629.4045662229      5.09e-07  Convergence criterion met
 ---------------------------------------
 SCF time:   CPU 146.12s  wall 146.00s 

************** Final PCM Free Energy Summary **************
 G_electrostatic  =      -0.00532701 hartree =      -3.34275084 kcal/mol
 G_cavitation     =       0.00000000 hartree =       0.00000000 kcal/mol
 G_dispersion     =       0.00000000 hartree =       0.00000000 kcal/mol
 G_repulsion      =       0.00000000 hartree =       0.00000000 kcal/mol
 --------------------------------------------------
 Non-electrostatic Free Energy =       0.00000000 hartree =       0.00000000 kcal/mol
 Total                         =      -0.00532701 hartree =      -3.34275084 kcal/mol
 --------------------------------------------------
 SCF Energy (H0 + V/2)                       =    -629.40456622 
 Solute Internal Energy (H0)                 =    -629.39923921 
 Total Free Energy (H0 + V/2 + non-elec)     =    -629.40456622 hartree
                                             = -394957.32639553 kcal/mol
***********************************************************

 SCF   energy in the final basis set =     -629.4045662229
 Total energy in the final basis set =     -629.4045662229


 --------------------------------------------------------------
  Generalized many-body perturbation theory program
  by Joonho Lee, Fazle Rob, Xintian Feng, Evgeny Epifanovsky

 No regularization used 
 (reg. param. = 0.0000e+00)
  (P|Q)^-1/2 Time:  CPU 0.48 s  wall 0.48 s

 In RI-MP2 calculation: 
 # of frozen core orbitals: 11

 Components of the RIMP2 correlation energy:
        aaaa    correlation energy =        -0.1463278679 a.u.
        abab    correlation energy =        -0.8892932124 a.u.
        bbbb    correlation energy =        -0.1463278679 a.u.
        non-Brillouin singles      =        -0.0000000000 a.u.
        total same-spin energy     =        -0.2926557358 a.u.
        total opposite-spin energy =        -0.8892932124 a.u.

 Total  RIMP2   correlation energy =        -1.1819489482 a.u.
        RIMP2         total energy =      -630.5865151711 a.u.

 RI-MP2 Energy Time:  CPU 11.11 s  wall 11.15 s
 
 --------------------------------------------------------------
 
                    Orbital Energies (a.u.)
 --------------------------------------------------------------
 
 Alpha MOs
 -- Occupied --
-91.9756 -11.2721 -11.2608 -11.2473 -11.2357 -11.2277 -11.2132  -8.9757
 -6.6566  -6.6560  -6.6556  -1.1640  -1.0543  -0.9994  -0.9377  -0.8835
 -0.7431  -0.7260  -0.6465  -0.5914  -0.5778  -0.5673  -0.5576  -0.5422
 -0.5121  -0.4768  -0.4686  -0.4402  -0.3355  -0.3013
 -- Virtual --
  0.0906   0.1442   0.1557   0.1772   0.1864   0.1898   0.2002   0.2240
  0.2354   0.2445   0.2494   0.2698   0.2989   0.3101   0.3424   0.3647
  0.3740   0.3895   0.4084   0.4168   0.4343   0.4549   0.4688   0.4724
  0.4936   0.4987   0.5139   0.5322   0.5372   0.5470   0.5687   0.5829
  0.5981   0.6082   0.6122   0.6297   0.6379   0.6398   0.6452   0.6495
  0.6566   0.6661   0.6849   0.6916   0.7414   0.7531   0.7597   0.7662
  0.8068   0.8253   0.8286   0.8397   0.8641   0.8801   0.8901   0.9197
  0.9551   0.9739   1.0074   1.0184   1.0306   1.0445   1.0637   1.0744
  1.0814   1.1032   1.1348   1.1567   1.1691   1.1899   1.1971   1.2113
  1.2160   1.2250   1.2516   1.2557   1.2707   1.2984   1.3279   1.3377
  1.3422   1.3795   1.3914   1.3948   1.4224   1.4268   1.4466   1.4794
  1.4935   1.4993   1.5190   1.5299   1.5577   1.5625   1.5723   1.5791
  1.5953   1.6312   1.6417   1.6636   1.6733   1.7065   1.7146   1.7264
  1.7701   1.7823   1.8134   1.8246   1.8831   1.9098   1.9446   1.9599
  1.9906   2.0350   2.1036   2.1246   2.1619   2.1927   2.2166   2.2303
  2.2574   2.2720   2.3367   2.4093   2.4546   2.4870   2.5391   2.5615
  2.5758   2.5979   2.6378   2.6542   2.6683   2.6912   2.7143   2.7344
  2.7518   2.7728   2.7889   2.8106   2.8318   2.8369   2.8672   2.8780
  2.9004   2.9378   2.9576   2.9632   2.9742   3.0162   3.0414   3.0688
  3.0827   3.1110   3.1303   3.1391   3.1594   3.1776   3.1816   3.1948
  3.2110   3.2422   3.2570   3.2708   3.2753   3.2929   3.3112   3.3290
  3.3415   3.3540   3.3789   3.3936   3.4058   3.4082   3.4279   3.4313
  3.4496   3.4857   3.4937   3.5127   3.5266   3.5356   3.5521   3.5555
  3.5863   3.5912   3.6180   3.6256   3.6391   3.6427   3.6777   3.6883
  3.6946   3.7138   3.7274   3.7438   3.7497   3.7592   3.7881   3.7925
  3.8050   3.8313   3.8547   3.8898   3.9108   3.9142   3.9470   3.9546
  3.9737   3.9869   4.0140   4.0259   4.0632   4.0687   4.1061   4.1284
  4.1448   4.1497   4.1617   4.1721   4.2038   4.2206   4.2256   4.2398
  4.2744   4.2896   4.3012   4.3284   4.3580   4.3789   4.3938   4.4024
  4.4189   4.4287   4.4503   4.4685   4.4922   4.5225   4.5531   4.5797
  4.6124   4.6580   4.6695   4.6931   4.7128   4.7494   4.7840   4.7876
  4.8204   4.8316   4.8438   4.8900   4.9386   4.9448   5.0801   5.0865
  5.1097   5.1394   5.1801   5.1840   5.2344   5.2571   5.2871   5.3058
  5.3690   5.3976   5.4068   5.4391   5.4604   5.4963   5.5468   5.5661
  5.5797   5.6243   5.6278   5.6892   5.7297   5.8214   5.8272   5.8719
  5.9079   5.9690   6.0342   6.1077   6.2272   6.2370   6.2733   6.3630
  6.3977   6.4484   9.2039  11.5713  12.8790  13.7843  14.1950  14.2636
 --------------------------------------------------------------
 
          Ground-State Mulliken Net Atomic Charges

     Atom                 Charge (a.u.)
  ----------------------------------------
      1 C                     0.023327
      2 C                    -0.252330
      3 C                     0.031265
      4 H                     0.175985
      5 C                    -0.244269
      6 S                    -0.001699
      7 C                    -0.270740
      8 H                     0.101231
      9 H                     0.107157
     10 H                     0.106367
     11 C                    -0.373897
     12 H                     0.129242
     13 H                     0.138755
     14 H                     0.136681
     15 H                     0.192924
  ----------------------------------------
  Sum of atomic charges =     0.000000

 -----------------------------------------------------------------
                    Cartesian Multipole Moments
 -----------------------------------------------------------------
    Charge (ESU x 10^10)
                -0.0000
    Dipole Moment (Debye)
         X       1.0941      Y      -0.0203      Z       2.1347
       Tot       2.3988
    Quadrupole Moments (Debye-Ang)
        XX     -51.9471     XY       3.3885     YY     -44.8793
        XZ      -0.3305     YZ      -1.0731     ZZ     -48.6583
    Octopole Moments (Debye-Ang^2)
       XXX     -52.6275    XXY     -22.3914    XYY      -9.5794
       YYY     -68.8628    XXZ      -2.7967    XYZ      -0.3332
       YYZ      -1.6579    XZZ     -15.4108    YZZ     -19.9551
       ZZZ       1.1137
    Hexadecapole Moments (Debye-Ang^3)
      XXXX    -219.8538   XXXY    -135.7766   XXYY    -145.2681
      XYYY    -123.3659   YYYY    -682.0886   XXXZ     -46.5920
      XXYZ     -28.8352   XYYZ     -23.3986   YYYZ     -91.4530
      XXZZ    -120.4371   XYZZ     -38.4140   YYZZ    -195.1043
      XZZZ     -49.7233   YZZZ     -83.8199   ZZZZ    -481.7956
 -----------------------------------------------------------------
 Total job time:  159.84s(wall), 157.59s(cpu) 
 Sun Jul 10 11:14:38 2022

        *************************************************************
        *                                                           *
        *  Thank you very much for using Q-Chem.  Have a nice day.  *
        *                                                           *
        *************************************************************


remove work dirs ./qchem1029036.0 -- ./qchem1029036.-1
rm -rf ./qchem1029036
