You are running Q-Chem version: 5.4.0

#
# job setting
#
local host:  exp-4-11
current dir: /expanse/lustre/scratch/theleonzhang/temp_project/Hydrogenated_Impropers_Test
input file:  Methylthiophene_Phi_15_Theta_90_Methylthiophene_Hydrogenated_Improper.qcin
output file: 
nprocs     : 0
nthreads   : 1
#
# qchem installation setting
#
QC:          /cm/shared/apps/spack/cpu/opt/spack/linux-centos8-zen2/gcc-10.2.0/qchem-5.4-akfmr7b3t57bfs6qan3padb2wnb2i7cl
QCAUX:       /cm/shared/apps/spack/cpu/opt/spack/linux-centos8-zen2/gcc-10.2.0/qchem-5.4-akfmr7b3t57bfs6qan3padb2wnb2i7cl/qcaux
QCPROG:      /cm/shared/apps/spack/cpu/opt/spack/linux-centos8-zen2/gcc-10.2.0/qchem-5.4-akfmr7b3t57bfs6qan3padb2wnb2i7cl/exe/qcprog.exe_s
QCPROG_S:    /cm/shared/apps/spack/cpu/opt/spack/linux-centos8-zen2/gcc-10.2.0/qchem-5.4-akfmr7b3t57bfs6qan3padb2wnb2i7cl/exe/qcprog.exe_s
PARALLEL:    -DSERIAL
QCMPI:       mpich
#
# qchem directory setting
#
qcrun:       qchem3420025
QCSCRATCH:   .
QCLOCALSCR:  
QCTMPDIR:    .
QCFILEPREF:  ./qchem3420025
QCSAVEDIR:   
workdirs:    ./qchem3420025
workdir0:    ./qchem3420025
partmpdirs =  
#
# parallel setting
#
QCRSH:           ssh
QCMPI:           mpich
QCMPIRUN:        /cm/shared/apps/spack/cpu/opt/spack/linux-centos8-zen2/gcc-10.2.0/qchem-5.4-akfmr7b3t57bfs6qan3padb2wnb2i7cl/bin/mpi/mpirun_qchem
QCMACHINEFILE:   ./qchem3420025/hostfile

#
# env setting
#
exported envs:   QC QCAUX QCSCRATCH QCRUNNAME QCFILEPREF QCPROG QCPROG_S GUIFILE

Running Job 1 of 1 Methylthiophene_Phi_15_Theta_90_Methylthiophene_Hydrogenated_Improper.qcin
qchem Methylthiophene_Phi_15_Theta_90_Methylthiophene_Hydrogenated_Improper.qcin_3420025.0 ./qchem3420025/ 0
/cm/shared/apps/spack/cpu/opt/spack/linux-centos8-zen2/gcc-10.2.0/qchem-5.4-akfmr7b3t57bfs6qan3padb2wnb2i7cl/exe/qcprog.exe_s Methylthiophene_Phi_15_Theta_90_Methylthiophene_Hydrogenated_Improper.qcin_3420025.0 ./qchem3420025/
                  Welcome to Q-Chem
     A Quantum Leap Into The Future Of Chemistry


 Q-Chem 5.4, Q-Chem, Inc., Pleasanton, CA (2021)

 License issued to: University of California, San Diego (site)

 E. Epifanovsky,  A. T. B. Gilbert,  Xintian Feng,  Joonho Lee,  Yuezhi Mao,  
 N. Mardirossian,  P. Pokhilko,  A. White,  M. Wormit,  M. P. Coons,  
 A. L. Dempwolff,  Zhengting Gan,  D. Hait,  P. R. Horn,  L. D. Jacobson,  
 I. Kaliman,  J. Kussmann,  A. W. Lange,  Ka Un Lao,  D. S. Levine,  Jie Liu,  
 S. C. McKenzie,  A. F. Morrison,  K. Nanda,  F. Plasser,  D. R. Rehn,  
 M. L. Vidal,  Zhi-Qiang You,  Ying Zhu,  B. Alam,  B. Albrecht,  
 A. Aldossary,  E. Alguire,  J. H. Andersen,  D. Barton,  K. Begam,  A. Behn,  
 Y. A. Bernard,  E. J. Berquist,  H. Burton,  A. Carreras,  K. Carter-Fenk,  
 R. Chakraborty,  A. D. Chien,  K. D. Closser,  V. Cofer-Shabica,  
 S. Dasgupta,  Jia Deng,  M. de Wergifosse,  M. Diedenhofen,  Hainam Do,  
 S. Ehlert,  Po-Tung Fang,  S. Fatehi,  Qingguo Feng,  J. Gayvert,  
 Qinghui Ge,  G. Gidofalvi,  M. Goldey,  J. Gomes,  C. Gonzalez-Espinoza,  
 S. Gulania,  A. Gunina,  M. W. D. Hanson-Heine,  P. H. P. Harbach,  
 A. W. Hauser,  M. F. Herbst,  M. Hernandez Vera,  M. Hodecker,  
 Z. C. Holden,  S. Houck,  Xunkun Huang,  Kerwin Hui,  B. C. Huynh,  
 M. Ivanov,  Hyunjun Ji,  Hanjie Jiang,  B. Kaduk,  S. Kaehler,  
 K. Khistyaev,  Jaehoon Kim,  P. Klunzinger,  Z. Koczor-Benda,  
 Joong Hoon Koh,  D. Kosenkov,  L. Koulias,  T. Kowalczyk,  C. M. Krauter,  
 K. Kue,  A. Kunitsa,  T. Kus,  A. Landau,  K. V. Lawler,  D. Lefrancois,  
 S. Lehtola,  Rain Li,  Yi-Pei Li,  Jiashu Liang,  M. Liebenthal,  
 Hung-Hsuan Lin,  You-Sheng Lin,  Fenglai Liu,  Kuan-Yu Liu,  
 M. Loipersberger,  A. Luenser,  A. Manjanath,  P. Manohar,  E. Mansoor,  
 S. F. Manzer,  Shan-Ping Mao,  A. V. Marenich,  T. Markovich,  S. Mason,  
 S. A. Maurer,  P. F. McLaughlin,  M. F. S. J. Menger,  J.-M. Mewes,  
 S. A. Mewes,  P. Morgante,  J. W. Mullinax,  T. S. Nguyen-Beck,  
 K. J. Oosterbaan,  G. Paran,  Alexander C. Paul,  Suranjan K. Paul,  
 F. Pavosevic,  Zheng Pei,  S. Prager,  E. I. Proynov,  E. Ramos,  B. Rana,  
 A. E. Rask,  A. Rettig,  R. M. Richard,  F. Rob,  E. Rossomme,  T. Scheele,  
 M. Scheurer,  M. Schneider,  N. Sergueev,  S. M. Sharada,  W. Skomorowski,  
 D. W. Small,  C. J. Stein,  Yu-Chuan Su,  E. J. Sundstrom,  Zhen Tao,  
 J. Thirman,  T. Tsuchimochi,  N. M. Tubman,  S. P. Veccham,  O. Vydrov,  
 J. Wenzel,  J. Witte,  A. Yamada,  Kun Yao,  S. Yeganeh,  S. R. Yost,  
 A. Zech,  Igor Ying Zhang,  Xing Zhang,  Yu Zhang,  D. Zuev,  
 A. Aspuru-Guzik,  A. T. Bell,  N. A. Besley,  K. B. Bravaya,  B. R. Brooks,  
 D. Casanova,  Jeng-Da Chai,  S. Coriani,  C. J. Cramer,  
 A. E. DePrince, III,  R. A. DiStasio Jr.,  A. Dreuw,  B. D. Dunietz,  
 T. R. Furlani,  W. A. Goddard III,  S. Grimme,  S. Hammes-Schiffer,  
 T. Head-Gordon,  W. J. Hehre,  Chao-Ping Hsu,  T.-C. Jagau,  Yousung Jung,  
 A. Klamt,  Jing Kong,  D. S. Lambrecht,  WanZhen Liang,  N. J. Mayhall,  
 C. W. McCurdy,  J. B. Neaton,  C. Ochsenfeld,  J. A. Parkhill,  R. Peverati,  
 V. A. Rassolov,  Yihan Shao,  L. V. Slipchenko,  T. Stauch,  R. P. Steele,  
 J. E. Subotnik,  A. J. W. Thom,  A. Tkatchenko,  D. G. Truhlar,  
 T. Van Voorhis,  T. A. Wesolowski,  K. B. Whaley,  H. L. Woodcock III,  
 P. M. Zimmerman,  S. Faraji,  P. M. W. Gill,  M. Head-Gordon,  
 J. M. Herbert,  A. I. Krylov

 Contributors to earlier versions of Q-Chem not listed above: 
 R. D. Adamson,  B. Austin,  R. Baer,  J. Baker,  G. J. O. Beran,  
 K. Brandhorst,  S. T. Brown,  E. F. C. Byrd,  A. K. Chakraborty,  
 G. K. L. Chan,  Chun-Min Chang,  Yunqing Chen,  C.-L. Cheng,  
 Siu Hung Chien,  D. M. Chipman,  D. L. Crittenden,  H. Dachsel,  
 R. J. Doerksen,  A. D. Dutoi,  R. G. Edgar,  J. Fosso-Tande,  
 L. Fusti-Molnar,  D. Ghosh,  A. Ghysels,  A. Golubeva-Zadorozhnaya,  
 J. Gonthier,  M. S. Gordon,  S. R. Gwaltney,  G. Hawkins,  J. E. Herr,  
 A. Heyden,  S. Hirata,  E. G. Hohenstein,  G. Kedziora,  F. J. Keil,  
 C. Kelley,  Jihan Kim,  R. A. King,  R. Z. Khaliullin,  P. P. Korambath,  
 W. Kurlancheek,  A. Laurent,  A. M. Lee,  M. S. Lee,  S. V. Levchenko,  
 Ching Yeh Lin,  D. Liotard,  E. Livshits,  R. C. Lochan,  I. Lotan,  
 L. A. Martinez-Martinez,  P. E. Maslen,  N. Nair,  D. P. O'Neill,  
 D. Neuhauser,  E. Neuscamman,  C. M. Oana,  R. Olivares-Amaya,  R. Olson,  
 T. M. Perrine,  B. Peters,  P. A. Pieniazek,  A. Prociuk,  Y. M. Rhee,  
 J. Ritchie,  M. A. Rohrdanz,  E. Rosta,  N. J. Russ,  H. F. Schaefer III,  
 M. W. Schmidt,  N. E. Schultz,  S. Sharma,  N. Shenvi,  C. D. Sherrill,  
 A. C. Simmonett,  A. Sodt,  T. Stein,  D. Stuck,  K. S. Thanthiriwatte,  
 V. Vanovschi,  L. Vogt,  Tao Wang,  A. Warshel,  M. A. Watson,  
 C. F. Williams,  Q. Wu,  X. Xu,  Jun Yang,  W. Zhang,  Yan Zhao

 Please cite Q-Chem as follows:
 Y. Shao et al., Mol. Phys. 113, 184-215 (2015)
 DOI: 10.1080/00268976.2014.952696

 Q-Chem 5.4.0 for Intel X86 EM64T Linux

 Parts of Q-Chem use Armadillo 9.800.1 (Horizon Scraper).
 http://arma.sourceforge.net/

 Q-Chem begins on Sun Jul 10 09:17:17 2022  

 Host: 
0

     Scratch files written to ./qchem3420025//
 May1621 |scratch|qcdevops|jenkins|workspace|build_RNUM    
 Processing $rem in /cm/shared/apps/spack/cpu/opt/spack/linux-centos8-zen2/gcc-10.2.0/qchem-5.4-akfmr7b3t57bfs6qan3padb2wnb2i7cl/config/preferences:
 Processing $rem in /home/theleonzhang/.qchemrc:
 Symmetry turned off for PCM/SM12/SMD calculation
 Core orbitals will be frozen

 Checking the input file for inconsistencies... 	...done.

--------------------------------------------------------------
User input:
--------------------------------------------------------------
$molecule
0 1
C	-0.174999	-0.553189	0.010180
C	0.048501	0.281011	1.109580
C	0.406701	1.617711	0.786880
H	-0.046899	-0.075289	2.146280
C	0.463901	1.830811	-0.602320
S	0.068901	0.357111	-1.476620
C	0.688301	2.668411	1.824780
H	0.578101	2.257311	2.846880
H	-0.004299	3.531411	1.736380
H	1.719601	3.069411	1.736380
C	-0.174999	-1.993889	0.010180
H	-0.175099	-1.994089	1.090180
H	0.644201	-2.697689	0.010280
H	-1.122099	-2.512789	0.010180
H	0.709601	2.747711	-1.151420
$end

$rem
JOBTYPE		SP
EXCHANGE	HF
CORRELATION	pRIMP2
BASIS		cc-pvtz
METHOD		rimp2
AUX_BASIS	rimp2-cc-pvtz
SOLVENT_METHOD	PCM
PURECART	11111
SYMMETRY	false
MEM_TOTAL	110000
SCF_CONVERGENCE = 6
THRESH=10
$end



$solvent
dielectric 4.90
$end
--------------------------------------------------------------
 ----------------------------------------------------------------
             Standard Nuclear Orientation (Angstroms)
    I     Atom           X                Y                Z
 ----------------------------------------------------------------
    1      C      -0.1749990000    -0.5531890000     0.0101800000
    2      C       0.0485010000     0.2810110000     1.1095800000
    3      C       0.4067010000     1.6177110000     0.7868800000
    4      H      -0.0468990000    -0.0752890000     2.1462800000
    5      C       0.4639010000     1.8308110000    -0.6023200000
    6      S       0.0689010000     0.3571110000    -1.4766200000
    7      C       0.6883010000     2.6684110000     1.8247800000
    8      H       0.5781010000     2.2573110000     2.8468800000
    9      H      -0.0042990000     3.5314110000     1.7363800000
   10      H       1.7196010000     3.0694110000     1.7363800000
   11      C      -0.1749990000    -1.9938890000     0.0101800000
   12      H      -0.1750990000    -1.9940890000     1.0901800000
   13      H       0.6442010000    -2.6976890000     0.0102800000
   14      H      -1.1220990000    -2.5127890000     0.0101800000
   15      H       0.7096010000     2.7477110000    -1.1514200000
 ----------------------------------------------------------------
 Nuclear Repulsion Energy =         344.61298168 hartrees
 There are       30 alpha and       30 beta electrons

 Q-Chem warning in module forms1/BasisType.C, line 2236:

 You are not using the predefined 5D/6D in this basis set.

 Requested basis set is cc-pVTZ
 There are 120 shells and 326 basis functions

 Total QAlloc Memory Limit 110000 MB
 Mega-Array Size       188 MB
 MEM_STATIC part       192 MB
 Discretize the solute cavity surface with Lebedev spheres
	Using 110 Lebedev grid points for each H atom
	Using 194 Lebedev grid points for other atoms
	Atomic van der Waals radii will be scaled by 1.20
 Remove points where switching function is < 1.0e-08
 Keep 1048 surface tesserae and discard 1190 interior tesserae
 Molecular Surface Area = 158.048 Angst**2

                       Distance Matrix (Angstroms)
             C (  1)   C (  2)   C (  3)   H (  4)   C (  5)   S (  6)
   C (  2)  1.398042
   C (  3)  2.377908  1.420989
   H (  4)  2.192652  1.100363  2.218101
   C (  5)  2.542991  2.346282  1.406613  3.383628
   S (  6)  1.760315  2.587400  2.612787  3.650450  1.758470
   C (  7)  3.796942  2.573040  1.503498  2.858631  2.577352  4.077377
   H (  8)  4.063611  2.684110  2.163808  2.514456  3.477344  4.750021
   H (  9)  4.437664  3.310705  2.175481  3.630168  2.929295  4.517179
   H ( 10)  4.437624  3.310684  2.175475  3.630107  2.929237  4.517162
   C ( 11)  1.440700  2.536494  3.739691  2.874084  3.925771  2.792358
   H ( 12)  1.800720  2.286144  3.670910  2.193986  4.231163  3.489433
   H ( 13)  2.295641  3.230476  4.391149  3.452115  4.573303  3.445816
   H ( 14)  2.176472  3.222468  4.472306  3.414731  4.664484  3.444616
   H ( 15)  3.609401  3.410833  2.263991  4.406410  1.096624  2.496241
             C (  7)   H (  8)   H (  9)   H ( 10)   C ( 11)   H ( 12)
   H (  8)  1.107175
   H (  9)  1.110080  1.787661
   H ( 10)  1.110043  1.787663  1.784734
   C ( 11)  5.076918  5.165920  5.791187  5.675058
   H ( 12)  4.798333  4.661299  5.565779  5.444859  1.080000
   H ( 13)  5.664749  5.709877  6.496280  6.115174  1.080011  1.527249
   H ( 14)  5.780584  5.804429  6.384481  6.497383  1.079933  1.527173
   H ( 15)  2.977332  4.030408  3.076236  3.076196  4.961311  5.319035
             H ( 13)   H ( 14)
   H ( 14)  1.775951
   H ( 15)  5.568322  5.690105
 
 Requested basis set is rimp2-cc-pVTZ
 There are 250 shells and 848 basis functions
 A cutoff of  1.0D-10 yielded   6205 shell pairs
 There are     45447 function pairs (     58441 Cartesian)
 Smallest overlap matrix eigenvalue = 1.12E-04

 Scale SEOQF with 1.000000e-01/1.000000e-01/1.000000e-01

 Standard Electronic Orientation quadrupole field applied
 Nucleus-field energy     =     0.0000000022 hartrees
 Guess from superposition of atomic densities
 Warning:  Energy on first SCF cycle will be non-variational
 SAD guess density has 60.000000 electrons

 -----------------------------------------------------------------------
  General SCF calculation program by
  Eric Jon Sundstrom, Paul Horn, Yuezhi Mao, Dmitri Zuev, Alec White,
  David Stuck, Shaama M.S., Shane Yost, Joonho Lee, David Small,
  Daniel Levine, Susi Lehtola, Hugh Burton, Evgeny Epifanovsky,
  Bang C. Huynh
 -----------------------------------------------------------------------
 Hartree-Fock
 A restricted SCF calculation will be
 performed using DIIS
 SCF converges when DIIS error is below 1.0e-06
 ---------------------------------------
  Cycle       Energy         DIIS error
 ---------------------------------------
    1    -632.1130296837      2.92e-02  
    2    -629.3416866380      1.90e-03  
    3    -629.4110347793      6.25e-04  
    4    -629.4179256351      3.16e-04  
    5    -629.4196719236      6.20e-05  
    6    -629.4198003331      2.44e-05  
    7    -629.4198322579      1.14e-05  
    8    -629.4198415814      4.74e-06  
    9    -629.4198430273      1.74e-06  
   10    -629.4198431882      4.90e-07  Convergence criterion met
 ---------------------------------------
 SCF time:   CPU 143.58s  wall 144.00s 

************** Final PCM Free Energy Summary **************
 G_electrostatic  =      -0.00542273 hartree =      -3.40281688 kcal/mol
 G_cavitation     =       0.00000000 hartree =       0.00000000 kcal/mol
 G_dispersion     =       0.00000000 hartree =       0.00000000 kcal/mol
 G_repulsion      =       0.00000000 hartree =       0.00000000 kcal/mol
 --------------------------------------------------
 Non-electrostatic Free Energy =       0.00000000 hartree =       0.00000000 kcal/mol
 Total                         =      -0.00542273 hartree =      -3.40281688 kcal/mol
 --------------------------------------------------
 SCF Energy (H0 + V/2)                       =    -629.41984319 
 Solute Internal Energy (H0)                 =    -629.41442045 
 Total Free Energy (H0 + V/2 + non-elec)     =    -629.41984319 hartree
                                             = -394966.91283594 kcal/mol
***********************************************************

 SCF   energy in the final basis set =     -629.4198431882
 Total energy in the final basis set =     -629.4198431882


 --------------------------------------------------------------
  Generalized many-body perturbation theory program
  by Joonho Lee, Fazle Rob, Xintian Feng, Evgeny Epifanovsky

 No regularization used 
 (reg. param. = 0.0000e+00)
  (P|Q)^-1/2 Time:  CPU 0.48 s  wall 0.48 s

 In RI-MP2 calculation: 
 # of frozen core orbitals: 11

 Components of the RIMP2 correlation energy:
        aaaa    correlation energy =        -0.1458339626 a.u.
        abab    correlation energy =        -0.8873678429 a.u.
        bbbb    correlation energy =        -0.1458339626 a.u.
        non-Brillouin singles      =        -0.0000000000 a.u.
        total same-spin energy     =        -0.2916679251 a.u.
        total opposite-spin energy =        -0.8873678429 a.u.

 Total  RIMP2   correlation energy =        -1.1790357680 a.u.
        RIMP2         total energy =      -630.5988789562 a.u.

 RI-MP2 Energy Time:  CPU 11.07 s  wall 11.10 s
 
 --------------------------------------------------------------
 
                    Orbital Energies (a.u.)
 --------------------------------------------------------------
 
 Alpha MOs
 -- Occupied --
-91.9746 -11.2753 -11.2591 -11.2471 -11.2357 -11.2276 -11.2153  -8.9748
 -6.6558  -6.6552  -6.6547  -1.1616  -1.0538  -0.9997  -0.9393  -0.8845
 -0.7425  -0.7249  -0.6485  -0.5905  -0.5784  -0.5677  -0.5584  -0.5418
 -0.5117  -0.4823  -0.4678  -0.4363  -0.3378  -0.3046
 -- Virtual --
  0.1003   0.1445   0.1515   0.1770   0.1861   0.1920   0.1989   0.2295
  0.2315   0.2438   0.2494   0.2698   0.3089   0.3108   0.3443   0.3604
  0.3773   0.3959   0.4126   0.4139   0.4412   0.4618   0.4707   0.4842
  0.4884   0.5015   0.5185   0.5246   0.5396   0.5448   0.5740   0.5905
  0.6022   0.6024   0.6199   0.6306   0.6398   0.6433   0.6461   0.6492
  0.6638   0.6699   0.6814   0.6874   0.7418   0.7513   0.7635   0.7686
  0.8052   0.8113   0.8427   0.8632   0.8669   0.8840   0.9055   0.9289
  0.9522   0.9710   1.0046   1.0142   1.0329   1.0470   1.0644   1.0753
  1.0784   1.0915   1.1119   1.1378   1.1629   1.1746   1.1879   1.2057
  1.2169   1.2271   1.2504   1.2621   1.2717   1.2877   1.3095   1.3329
  1.3456   1.3533   1.3894   1.4129   1.4317   1.4490   1.4585   1.4833
  1.4899   1.5096   1.5271   1.5319   1.5511   1.5629   1.5732   1.5846
  1.5976   1.6338   1.6498   1.6687   1.6856   1.7051   1.7201   1.7557
  1.7698   1.7825   1.8027   1.8143   1.8985   1.9154   1.9201   1.9636
  1.9909   2.0407   2.1012   2.1266   2.1770   2.1895   2.2149   2.2196
  2.2573   2.2900   2.3516   2.4168   2.4630   2.5022   2.5285   2.5663
  2.5791   2.5992   2.6363   2.6460   2.6597   2.6867   2.7151   2.7371
  2.7444   2.7563   2.7721   2.7955   2.8347   2.8373   2.8532   2.8847
  2.9047   2.9201   2.9344   2.9624   2.9995   3.0028   3.0410   3.0741
  3.0930   3.1112   3.1155   3.1391   3.1552   3.1583   3.1980   3.2045
  3.2049   3.2384   3.2612   3.2655   3.2915   3.3199   3.3234   3.3301
  3.3441   3.3674   3.3722   3.3839   3.3913   3.4062   3.4255   3.4354
  3.4477   3.4668   3.4789   3.4880   3.4953   3.5202   3.5389   3.5527
  3.5869   3.5992   3.6099   3.6161   3.6332   3.6651   3.6717   3.6743
  3.7090   3.7123   3.7213   3.7366   3.7608   3.7728   3.7848   3.7913
  3.8073   3.8495   3.8714   3.8875   3.8972   3.9061   3.9423   3.9477
  3.9699   3.9811   3.9925   4.0298   4.0472   4.0626   4.0864   4.1005
  4.1234   4.1440   4.1525   4.1660   4.2043   4.2156   4.2254   4.2314
  4.2687   4.2800   4.3004   4.3392   4.3494   4.3728   4.4007   4.4092
  4.4248   4.4356   4.4469   4.4613   4.4856   4.5246   4.5510   4.5761
  4.6111   4.6310   4.6544   4.6851   4.7202   4.7505   4.7792   4.8016
  4.8134   4.8158   4.8761   4.9014   4.9093   4.9248   5.0786   5.0920
  5.1028   5.1376   5.1898   5.2183   5.2520   5.2618   5.2973   5.3071
  5.3605   5.3958   5.4115   5.4488   5.4831   5.4932   5.5481   5.5783
  5.5975   5.6234   5.6348   5.6967   5.7094   5.8262   5.8427   5.8518
  5.8999   5.9894   6.0401   6.1373   6.2267   6.2482   6.2856   6.3491
  6.4437   6.4930   9.1953  11.4250  12.9179  13.8625  14.1952  14.4327
 --------------------------------------------------------------
 
          Ground-State Mulliken Net Atomic Charges

     Atom                 Charge (a.u.)
  ----------------------------------------
      1 C                     0.048763
      2 C                    -0.268706
      3 C                     0.034945
      4 H                     0.177138
      5 C                    -0.248752
      6 S                    -0.006569
      7 C                    -0.272624
      8 H                     0.101156
      9 H                     0.107022
     10 H                     0.107225
     11 C                    -0.362890
     12 H                     0.118834
     13 H                     0.144662
     14 H                     0.126492
     15 H                     0.193303
  ----------------------------------------
  Sum of atomic charges =     0.000000

 -----------------------------------------------------------------
                    Cartesian Multipole Moments
 -----------------------------------------------------------------
    Charge (ESU x 10^10)
                -0.0000
    Dipole Moment (Debye)
         X       0.3987      Y       0.0054      Z       2.1627
       Tot       2.1992
    Quadrupole Moments (Debye-Ang)
        XX     -53.1413     XY       2.0898     YY     -42.8702
        XZ      -0.0554     YZ      -1.1032     ZZ     -48.9222
    Octopole Moments (Debye-Ang^2)
       XXX     -28.3130    XXY     -30.0096    XYY      -3.3271
       YYY     -76.1014    XXZ      -2.3161    XYZ      -0.6249
       YYZ      -1.9962    XZZ      -7.7921    YZZ     -22.6037
       ZZZ       0.9141
    Hexadecapole Moments (Debye-Ang^3)
      XXXX    -117.1360   XXXY     -80.0984   XXYY    -152.9979
      XYYY     -71.9615   YYYY    -779.3131   XXXZ     -23.2952
      XXYZ     -29.1388   XYYZ     -11.3554   YYYZ    -103.4832
      XXZZ    -107.1076   XYZZ     -22.3066   YYZZ    -212.2692
      XZZZ     -25.9731   YZZZ     -93.2774   ZZZZ    -482.4608
 -----------------------------------------------------------------
 Total job time:  156.14s(wall), 155.00s(cpu) 
 Sun Jul 10 09:19:53 2022

        *************************************************************
        *                                                           *
        *  Thank you very much for using Q-Chem.  Have a nice day.  *
        *                                                           *
        *************************************************************


remove work dirs ./qchem3420025.0 -- ./qchem3420025.-1
rm -rf ./qchem3420025
