You are running Q-Chem version: 5.4.0

#
# job setting
#
local host:  exp-1-06
current dir: /expanse/lustre/scratch/theleonzhang/temp_project/Hydrogenated_Impropers_Test
input file:  Methylthiophene_Phi_0_Theta_290_Methylthiophene_Hydrogenated_Improper_Alternate.qcin
output file: 
nprocs     : 0
nthreads   : 1
#
# qchem installation setting
#
QC:          /cm/shared/apps/spack/cpu/opt/spack/linux-centos8-zen2/gcc-10.2.0/qchem-5.4-akfmr7b3t57bfs6qan3padb2wnb2i7cl
QCAUX:       /cm/shared/apps/spack/cpu/opt/spack/linux-centos8-zen2/gcc-10.2.0/qchem-5.4-akfmr7b3t57bfs6qan3padb2wnb2i7cl/qcaux
QCPROG:      /cm/shared/apps/spack/cpu/opt/spack/linux-centos8-zen2/gcc-10.2.0/qchem-5.4-akfmr7b3t57bfs6qan3padb2wnb2i7cl/exe/qcprog.exe_s
QCPROG_S:    /cm/shared/apps/spack/cpu/opt/spack/linux-centos8-zen2/gcc-10.2.0/qchem-5.4-akfmr7b3t57bfs6qan3padb2wnb2i7cl/exe/qcprog.exe_s
PARALLEL:    -DSERIAL
QCMPI:       mpich
#
# qchem directory setting
#
qcrun:       qchem1909042
QCSCRATCH:   .
QCLOCALSCR:  
QCTMPDIR:    .
QCFILEPREF:  ./qchem1909042
QCSAVEDIR:   
workdirs:    ./qchem1909042
workdir0:    ./qchem1909042
partmpdirs =  
#
# parallel setting
#
QCRSH:           ssh
QCMPI:           mpich
QCMPIRUN:        /cm/shared/apps/spack/cpu/opt/spack/linux-centos8-zen2/gcc-10.2.0/qchem-5.4-akfmr7b3t57bfs6qan3padb2wnb2i7cl/bin/mpi/mpirun_qchem
QCMACHINEFILE:   ./qchem1909042/hostfile

#
# env setting
#
exported envs:   QC QCAUX QCSCRATCH QCRUNNAME QCFILEPREF QCPROG QCPROG_S GUIFILE

Running Job 1 of 1 Methylthiophene_Phi_0_Theta_290_Methylthiophene_Hydrogenated_Improper_Alternate.qcin
qchem Methylthiophene_Phi_0_Theta_290_Methylthiophene_Hydrogenated_Improper_Alternate.qcin_1909042.0 ./qchem1909042/ 0
/cm/shared/apps/spack/cpu/opt/spack/linux-centos8-zen2/gcc-10.2.0/qchem-5.4-akfmr7b3t57bfs6qan3padb2wnb2i7cl/exe/qcprog.exe_s Methylthiophene_Phi_0_Theta_290_Methylthiophene_Hydrogenated_Improper_Alternate.qcin_1909042.0 ./qchem1909042/
                  Welcome to Q-Chem
     A Quantum Leap Into The Future Of Chemistry


 Q-Chem 5.4, Q-Chem, Inc., Pleasanton, CA (2021)

 License issued to: University of California, San Diego (site)

 E. Epifanovsky,  A. T. B. Gilbert,  Xintian Feng,  Joonho Lee,  Yuezhi Mao,  
 N. Mardirossian,  P. Pokhilko,  A. White,  M. Wormit,  M. P. Coons,  
 A. L. Dempwolff,  Zhengting Gan,  D. Hait,  P. R. Horn,  L. D. Jacobson,  
 I. Kaliman,  J. Kussmann,  A. W. Lange,  Ka Un Lao,  D. S. Levine,  Jie Liu,  
 S. C. McKenzie,  A. F. Morrison,  K. Nanda,  F. Plasser,  D. R. Rehn,  
 M. L. Vidal,  Zhi-Qiang You,  Ying Zhu,  B. Alam,  B. Albrecht,  
 A. Aldossary,  E. Alguire,  J. H. Andersen,  D. Barton,  K. Begam,  A. Behn,  
 Y. A. Bernard,  E. J. Berquist,  H. Burton,  A. Carreras,  K. Carter-Fenk,  
 R. Chakraborty,  A. D. Chien,  K. D. Closser,  V. Cofer-Shabica,  
 S. Dasgupta,  Jia Deng,  M. de Wergifosse,  M. Diedenhofen,  Hainam Do,  
 S. Ehlert,  Po-Tung Fang,  S. Fatehi,  Qingguo Feng,  J. Gayvert,  
 Qinghui Ge,  G. Gidofalvi,  M. Goldey,  J. Gomes,  C. Gonzalez-Espinoza,  
 S. Gulania,  A. Gunina,  M. W. D. Hanson-Heine,  P. H. P. Harbach,  
 A. W. Hauser,  M. F. Herbst,  M. Hernandez Vera,  M. Hodecker,  
 Z. C. Holden,  S. Houck,  Xunkun Huang,  Kerwin Hui,  B. C. Huynh,  
 M. Ivanov,  Hyunjun Ji,  Hanjie Jiang,  B. Kaduk,  S. Kaehler,  
 K. Khistyaev,  Jaehoon Kim,  P. Klunzinger,  Z. Koczor-Benda,  
 Joong Hoon Koh,  D. Kosenkov,  L. Koulias,  T. Kowalczyk,  C. M. Krauter,  
 K. Kue,  A. Kunitsa,  T. Kus,  A. Landau,  K. V. Lawler,  D. Lefrancois,  
 S. Lehtola,  Rain Li,  Yi-Pei Li,  Jiashu Liang,  M. Liebenthal,  
 Hung-Hsuan Lin,  You-Sheng Lin,  Fenglai Liu,  Kuan-Yu Liu,  
 M. Loipersberger,  A. Luenser,  A. Manjanath,  P. Manohar,  E. Mansoor,  
 S. F. Manzer,  Shan-Ping Mao,  A. V. Marenich,  T. Markovich,  S. Mason,  
 S. A. Maurer,  P. F. McLaughlin,  M. F. S. J. Menger,  J.-M. Mewes,  
 S. A. Mewes,  P. Morgante,  J. W. Mullinax,  T. S. Nguyen-Beck,  
 K. J. Oosterbaan,  G. Paran,  Alexander C. Paul,  Suranjan K. Paul,  
 F. Pavosevic,  Zheng Pei,  S. Prager,  E. I. Proynov,  E. Ramos,  B. Rana,  
 A. E. Rask,  A. Rettig,  R. M. Richard,  F. Rob,  E. Rossomme,  T. Scheele,  
 M. Scheurer,  M. Schneider,  N. Sergueev,  S. M. Sharada,  W. Skomorowski,  
 D. W. Small,  C. J. Stein,  Yu-Chuan Su,  E. J. Sundstrom,  Zhen Tao,  
 J. Thirman,  T. Tsuchimochi,  N. M. Tubman,  S. P. Veccham,  O. Vydrov,  
 J. Wenzel,  J. Witte,  A. Yamada,  Kun Yao,  S. Yeganeh,  S. R. Yost,  
 A. Zech,  Igor Ying Zhang,  Xing Zhang,  Yu Zhang,  D. Zuev,  
 A. Aspuru-Guzik,  A. T. Bell,  N. A. Besley,  K. B. Bravaya,  B. R. Brooks,  
 D. Casanova,  Jeng-Da Chai,  S. Coriani,  C. J. Cramer,  
 A. E. DePrince, III,  R. A. DiStasio Jr.,  A. Dreuw,  B. D. Dunietz,  
 T. R. Furlani,  W. A. Goddard III,  S. Grimme,  S. Hammes-Schiffer,  
 T. Head-Gordon,  W. J. Hehre,  Chao-Ping Hsu,  T.-C. Jagau,  Yousung Jung,  
 A. Klamt,  Jing Kong,  D. S. Lambrecht,  WanZhen Liang,  N. J. Mayhall,  
 C. W. McCurdy,  J. B. Neaton,  C. Ochsenfeld,  J. A. Parkhill,  R. Peverati,  
 V. A. Rassolov,  Yihan Shao,  L. V. Slipchenko,  T. Stauch,  R. P. Steele,  
 J. E. Subotnik,  A. J. W. Thom,  A. Tkatchenko,  D. G. Truhlar,  
 T. Van Voorhis,  T. A. Wesolowski,  K. B. Whaley,  H. L. Woodcock III,  
 P. M. Zimmerman,  S. Faraji,  P. M. W. Gill,  M. Head-Gordon,  
 J. M. Herbert,  A. I. Krylov

 Contributors to earlier versions of Q-Chem not listed above: 
 R. D. Adamson,  B. Austin,  R. Baer,  J. Baker,  G. J. O. Beran,  
 K. Brandhorst,  S. T. Brown,  E. F. C. Byrd,  A. K. Chakraborty,  
 G. K. L. Chan,  Chun-Min Chang,  Yunqing Chen,  C.-L. Cheng,  
 Siu Hung Chien,  D. M. Chipman,  D. L. Crittenden,  H. Dachsel,  
 R. J. Doerksen,  A. D. Dutoi,  R. G. Edgar,  J. Fosso-Tande,  
 L. Fusti-Molnar,  D. Ghosh,  A. Ghysels,  A. Golubeva-Zadorozhnaya,  
 J. Gonthier,  M. S. Gordon,  S. R. Gwaltney,  G. Hawkins,  J. E. Herr,  
 A. Heyden,  S. Hirata,  E. G. Hohenstein,  G. Kedziora,  F. J. Keil,  
 C. Kelley,  Jihan Kim,  R. A. King,  R. Z. Khaliullin,  P. P. Korambath,  
 W. Kurlancheek,  A. Laurent,  A. M. Lee,  M. S. Lee,  S. V. Levchenko,  
 Ching Yeh Lin,  D. Liotard,  E. Livshits,  R. C. Lochan,  I. Lotan,  
 L. A. Martinez-Martinez,  P. E. Maslen,  N. Nair,  D. P. O'Neill,  
 D. Neuhauser,  E. Neuscamman,  C. M. Oana,  R. Olivares-Amaya,  R. Olson,  
 T. M. Perrine,  B. Peters,  P. A. Pieniazek,  A. Prociuk,  Y. M. Rhee,  
 J. Ritchie,  M. A. Rohrdanz,  E. Rosta,  N. J. Russ,  H. F. Schaefer III,  
 M. W. Schmidt,  N. E. Schultz,  S. Sharma,  N. Shenvi,  C. D. Sherrill,  
 A. C. Simmonett,  A. Sodt,  T. Stein,  D. Stuck,  K. S. Thanthiriwatte,  
 V. Vanovschi,  L. Vogt,  Tao Wang,  A. Warshel,  M. A. Watson,  
 C. F. Williams,  Q. Wu,  X. Xu,  Jun Yang,  W. Zhang,  Yan Zhao

 Please cite Q-Chem as follows:
 Y. Shao et al., Mol. Phys. 113, 184-215 (2015)
 DOI: 10.1080/00268976.2014.952696

 Q-Chem 5.4.0 for Intel X86 EM64T Linux

 Parts of Q-Chem use Armadillo 9.800.1 (Horizon Scraper).
 http://arma.sourceforge.net/

 Q-Chem begins on Sun Jul 10 10:28:44 2022  

 Host: 
0

     Scratch files written to ./qchem1909042//
 May1621 |scratch|qcdevops|jenkins|workspace|build_RNUM    
 Processing $rem in /cm/shared/apps/spack/cpu/opt/spack/linux-centos8-zen2/gcc-10.2.0/qchem-5.4-akfmr7b3t57bfs6qan3padb2wnb2i7cl/config/preferences:
 Processing $rem in /home/theleonzhang/.qchemrc:
 Symmetry turned off for PCM/SM12/SMD calculation
 Core orbitals will be frozen

 Checking the input file for inconsistencies... 	...done.

--------------------------------------------------------------
User input:
--------------------------------------------------------------
$molecule
0 1
C	-0.002218	-0.576309	0.019394
C	-0.002218	0.287291	1.118794
C	-0.002118	1.671191	0.796094
H	-0.002218	-0.081509	2.155494
C	-0.002118	1.891891	-0.593106
S	-0.002218	0.366091	-1.467406
C	-0.002118	2.758991	1.833994
H	-0.002118	2.333291	2.856094
H	-0.894518	3.413291	1.745594
H	0.890282	3.413191	1.745594
C	-0.002218	-2.017009	0.019394
H	0.367282	-2.017209	-0.995406
H	-0.772018	-2.720809	-0.260806
H	0.887782	-2.535909	0.343294
H	-0.002118	2.841091	-1.142206
$end

$rem
JOBTYPE		SP
EXCHANGE	HF
CORRELATION	pRIMP2
BASIS		cc-pvtz
METHOD		rimp2
AUX_BASIS	rimp2-cc-pvtz
SOLVENT_METHOD	PCM
PURECART	11111
SYMMETRY	false
MEM_TOTAL	110000
SCF_CONVERGENCE = 6
THRESH=10
$end



$solvent
dielectric 4.90
$end
--------------------------------------------------------------
 ----------------------------------------------------------------
             Standard Nuclear Orientation (Angstroms)
    I     Atom           X                Y                Z
 ----------------------------------------------------------------
    1      C      -0.0022180000    -0.5763090000     0.0193940000
    2      C      -0.0022180000     0.2872910000     1.1187940000
    3      C      -0.0021180000     1.6711910000     0.7960940000
    4      H      -0.0022180000    -0.0815090000     2.1554940000
    5      C      -0.0021180000     1.8918910000    -0.5931060000
    6      S      -0.0022180000     0.3660910000    -1.4674060000
    7      C      -0.0021180000     2.7589910000     1.8339940000
    8      H      -0.0021180000     2.3332910000     2.8560940000
    9      H      -0.8945180000     3.4132910000     1.7455940000
   10      H       0.8902820000     3.4131910000     1.7455940000
   11      C      -0.0022180000    -2.0170090000     0.0193940000
   12      H       0.3672820000    -2.0172090000    -0.9954060000
   13      H      -0.7720180000    -2.7208090000    -0.2608060000
   14      H       0.8877820000    -2.5359090000     0.3432940000
   15      H      -0.0021180000     2.8410910000    -1.1422060000
 ----------------------------------------------------------------
 Nuclear Repulsion Energy =         344.66521126 hartrees
 There are       30 alpha and       30 beta electrons

 Q-Chem warning in module forms1/BasisType.C, line 2236:

 You are not using the predefined 5D/6D in this basis set.

 Requested basis set is cc-pVTZ
 There are 120 shells and 326 basis functions

 Total QAlloc Memory Limit 110000 MB
 Mega-Array Size       188 MB
 MEM_STATIC part       192 MB
 Discretize the solute cavity surface with Lebedev spheres
	Using 110 Lebedev grid points for each H atom
	Using 194 Lebedev grid points for other atoms
	Atomic van der Waals radii will be scaled by 1.20
 Remove points where switching function is < 1.0e-08
 Keep 1060 surface tesserae and discard 1178 interior tesserae
 Molecular Surface Area = 158.932 Angst**2

                       Distance Matrix (Angstroms)
             C (  1)   C (  2)   C (  3)   H (  4)   C (  5)   S (  6)
   C (  2)  1.398029
   C (  3)  2.377923  1.421026
   H (  4)  2.192658  1.100346  2.218091
   C (  5)  2.543063  2.346347  1.406622  3.383653
   S (  6)  1.760310  2.587400  2.612799  3.650445  1.758541
   C (  7)  3.796972  2.573094  1.503511  2.858636  2.577339  4.077403
   H (  8)  4.063575  2.684088  2.163788  2.514379  3.477329  4.750003
   H (  9)  4.437665  3.310733  2.175509  3.630130  2.929258  4.517189
   H ( 10)  4.437616  3.310693  2.175429  3.630083  2.929206  4.517161
   C ( 11)  1.440700  2.553131  3.769096  2.882548  3.956596  2.808868
   H ( 12)  1.800706  3.149141  4.117065  3.716401  3.947070  2.457526
   H ( 13)  2.295645  3.397728  4.582515  3.660192  4.688301  3.402562
   H ( 14)  2.176475  3.060059  4.323961  3.178089  4.612394  3.534450
   H ( 15)  3.609423  3.410867  2.263995  4.406406  1.096582  2.496273
             C (  7)   H (  8)   H (  9)   H ( 10)   C ( 11)   H ( 12)
   H (  8)  1.107208
   H (  9)  1.110090  1.787733
   H ( 10)  1.110032  1.787672  1.784800
   C ( 11)  5.109105  5.193455  5.767506  5.767443
   H ( 12)  5.563636  5.822144  6.212532  6.105395  1.079977
   H ( 13)  5.916852  5.987632  6.455062  6.664446  1.080018  1.527316
   H ( 14)  5.572259  5.551144  6.366790  6.112139  1.079939  1.527117
   H ( 15)  2.977332  4.030417  3.076228  3.076210  4.995043  4.874534
             H ( 13)   H ( 14)
   H ( 14)  1.775968
   H ( 15)  5.683691  5.648961
 
 Requested basis set is rimp2-cc-pVTZ
 There are 250 shells and 848 basis functions
 A cutoff of  1.0D-10 yielded   6173 shell pairs
 There are     45177 function pairs (     58082 Cartesian)
 Smallest overlap matrix eigenvalue = 9.86E-05

 Scale SEOQF with 1.000000e+00/1.000000e-01/1.000000e-01

 Standard Electronic Orientation quadrupole field applied
 Nucleus-field energy     =     0.0000000035 hartrees
 Guess from superposition of atomic densities
 Warning:  Energy on first SCF cycle will be non-variational
 SAD guess density has 60.000000 electrons

 -----------------------------------------------------------------------
  General SCF calculation program by
  Eric Jon Sundstrom, Paul Horn, Yuezhi Mao, Dmitri Zuev, Alec White,
  David Stuck, Shaama M.S., Shane Yost, Joonho Lee, David Small,
  Daniel Levine, Susi Lehtola, Hugh Burton, Evgeny Epifanovsky,
  Bang C. Huynh
 -----------------------------------------------------------------------
 Hartree-Fock
 A restricted SCF calculation will be
 performed using DIIS
 SCF converges when DIIS error is below 1.0e-06
 ---------------------------------------
  Cycle       Energy         DIIS error
 ---------------------------------------
    1    -632.1075187951      2.92e-02  
    2    -629.3409846096      1.94e-03  
    3    -629.4114363063      6.80e-04  
    4    -629.4189697440      3.42e-04  
    5    -629.4210604177      6.41e-05  
    6    -629.4211962467      2.62e-05  
    7    -629.4212304936      1.16e-05  
    8    -629.4212399398      4.98e-06  
    9    -629.4212413582      1.74e-06  
   10    -629.4212415342      5.56e-07  Convergence criterion met
 ---------------------------------------
 SCF time:   CPU 144.67s  wall 145.00s 

************** Final PCM Free Energy Summary **************
 G_electrostatic  =      -0.00512263 hartree =      -3.21449686 kcal/mol
 G_cavitation     =       0.00000000 hartree =       0.00000000 kcal/mol
 G_dispersion     =       0.00000000 hartree =       0.00000000 kcal/mol
 G_repulsion      =       0.00000000 hartree =       0.00000000 kcal/mol
 --------------------------------------------------
 Non-electrostatic Free Energy =       0.00000000 hartree =       0.00000000 kcal/mol
 Total                         =      -0.00512263 hartree =      -3.21449686 kcal/mol
 --------------------------------------------------
 SCF Energy (H0 + V/2)                       =    -629.42124153 
 Solute Internal Energy (H0)                 =    -629.41611891 
 Total Free Energy (H0 + V/2 + non-elec)     =    -629.42124153 hartree
                                             = -394967.79031126 kcal/mol
***********************************************************

 SCF   energy in the final basis set =     -629.4212415342
 Total energy in the final basis set =     -629.4212415342


 --------------------------------------------------------------
  Generalized many-body perturbation theory program
  by Joonho Lee, Fazle Rob, Xintian Feng, Evgeny Epifanovsky

 No regularization used 
 (reg. param. = 0.0000e+00)
  (P|Q)^-1/2 Time:  CPU 0.50 s  wall 0.50 s

 In RI-MP2 calculation: 
 # of frozen core orbitals: 11

 Components of the RIMP2 correlation energy:
        aaaa    correlation energy =        -0.1455138964 a.u.
        abab    correlation energy =        -0.8865139188 a.u.
        bbbb    correlation energy =        -0.1455138964 a.u.
        non-Brillouin singles      =        -0.0000000000 a.u.
        total same-spin energy     =        -0.2910277927 a.u.
        total opposite-spin energy =        -0.8865139188 a.u.

 Total  RIMP2   correlation energy =        -1.1775417115 a.u.
        RIMP2         total energy =      -630.5987832456 a.u.

 RI-MP2 Energy Time:  CPU 11.42 s  wall 11.50 s
 
 --------------------------------------------------------------
 
                    Orbital Energies (a.u.)
 --------------------------------------------------------------
 
 Alpha MOs
 -- Occupied --
-91.9800 -11.2761 -11.2570 -11.2471 -11.2289 -11.2268 -11.2165  -8.9799
 -6.6608  -6.6603  -6.6597  -1.1608  -1.0552  -0.9955  -0.9461  -0.8818
 -0.7476  -0.7186  -0.6480  -0.5915  -0.5755  -0.5666  -0.5527  -0.5474
 -0.5088  -0.4866  -0.4649  -0.4458  -0.3385  -0.3021
 -- Virtual --
  0.1045   0.1423   0.1498   0.1741   0.1885   0.1918   0.1961   0.2306
  0.2397   0.2440   0.2464   0.2773   0.2881   0.3182   0.3415   0.3498
  0.3759   0.3984   0.4060   0.4134   0.4410   0.4693   0.4720   0.4810
  0.4923   0.5037   0.5272   0.5291   0.5359   0.5652   0.5823   0.5957
  0.5999   0.6056   0.6150   0.6170   0.6330   0.6414   0.6420   0.6498
  0.6606   0.6623   0.6905   0.7066   0.7331   0.7411   0.7682   0.7804
  0.8002   0.8171   0.8422   0.8556   0.8695   0.8993   0.9066   0.9389
  0.9590   0.9640   0.9796   1.0077   1.0364   1.0476   1.0623   1.0760
  1.0833   1.0852   1.1137   1.1335   1.1573   1.1711   1.1932   1.2129
  1.2186   1.2414   1.2552   1.2579   1.2694   1.3020   1.3053   1.3197
  1.3587   1.3846   1.4025   1.4096   1.4313   1.4378   1.4577   1.4788
  1.4914   1.5079   1.5306   1.5412   1.5516   1.5613   1.5718   1.5864
  1.6215   1.6250   1.6372   1.6690   1.6883   1.6968   1.7116   1.7478
  1.7636   1.7811   1.8191   1.8379   1.8906   1.8970   1.9187   1.9656
  1.9913   2.0474   2.1013   2.1320   2.1852   2.1980   2.2174   2.2423
  2.2589   2.3002   2.3595   2.4142   2.4547   2.5057   2.5246   2.5604
  2.5737   2.6081   2.6185   2.6543   2.6742   2.6783   2.7208   2.7321
  2.7478   2.7583   2.7890   2.7945   2.8200   2.8471   2.8506   2.8858
  2.9117   2.9209   2.9353   2.9693   2.9977   3.0143   3.0502   3.0760
  3.0978   3.1143   3.1282   3.1404   3.1480   3.1621   3.1763   3.1934
  3.2295   3.2446   3.2548   3.2675   3.2902   3.3025   3.3049   3.3227
  3.3402   3.3590   3.3742   3.3883   3.3954   3.4187   3.4277   3.4352
  3.4506   3.4567   3.4889   3.4998   3.5103   3.5125   3.5260   3.5677
  3.5872   3.5977   3.6113   3.6187   3.6324   3.6357   3.6595   3.6793
  3.7016   3.7166   3.7307   3.7636   3.7647   3.7812   3.7832   3.8021
  3.8160   3.8309   3.8702   3.8832   3.9177   3.9239   3.9285   3.9522
  3.9600   3.9707   4.0073   4.0220   4.0325   4.0576   4.0964   4.1025
  4.1405   4.1472   4.1614   4.1750   4.1856   4.2140   4.2240   4.2467
  4.2824   4.2844   4.3091   4.3381   4.3428   4.3548   4.3897   4.4027
  4.4113   4.4345   4.4404   4.4510   4.4737   4.4783   4.5391   4.5562
  4.5953   4.6228   4.6439   4.6531   4.7162   4.7465   4.7537   4.7889
  4.7935   4.8180   4.8594   4.9044   4.9324   5.0051   5.0945   5.0980
  5.1294   5.1308   5.1675   5.1981   5.2502   5.2817   5.2960   5.3100
  5.3643   5.4046   5.4111   5.4422   5.4644   5.4936   5.5499   5.5634
  5.5948   5.6216   5.6279   5.6998   5.7354   5.8257   5.8343   5.8771
  5.9176   5.9618   6.0620   6.1332   6.2270   6.2506   6.3080   6.3888
  6.4159   6.5105   9.2082  11.3981  12.9280  13.9041  14.1819  14.5218
 --------------------------------------------------------------
 
          Ground-State Mulliken Net Atomic Charges

     Atom                 Charge (a.u.)
  ----------------------------------------
      1 C                     0.055870
      2 C                    -0.264310
      3 C                     0.038301
      4 H                     0.180356
      5 C                    -0.259400
      6 S                    -0.002295
      7 C                    -0.273309
      8 H                     0.101811
      9 H                     0.106974
     10 H                     0.106903
     11 C                    -0.370898
     12 H                     0.113578
     13 H                     0.140125
     14 H                     0.131371
     15 H                     0.194922
  ----------------------------------------
  Sum of atomic charges =     0.000000

 -----------------------------------------------------------------
                    Cartesian Multipole Moments
 -----------------------------------------------------------------
    Charge (ESU x 10^10)
                -0.0000
    Dipole Moment (Debye)
         X       0.2389      Y      -0.0318      Z       0.8812
       Tot       0.9136
    Quadrupole Moments (Debye-Ang)
        XX     -53.7771     XY      -0.4210     YY     -42.1375
        XZ       0.2199     YZ       1.4949     ZZ     -48.8053
    Octopole Moments (Debye-Ang^2)
       XXX      -0.2438    XXY     -32.6707    XYY       0.3086
       YYY     -78.7193    XXZ      -1.5492    XYZ      -0.8398
       YYZ      -7.5968    XZZ      -0.1467    YZZ     -23.5445
       ZZZ       2.1100
    Hexadecapole Moments (Debye-Ang^3)
      XXXX     -78.5419   XXXY       1.0896   XXYY    -157.6541
      XYYY       1.8749   YYYY    -813.7401   XXXZ       0.2677
      XXYZ     -31.5186   XYYZ       2.5073   YYYZ    -100.9680
      XXZZ    -101.6307   XYZZ       0.5560   YYZZ    -217.3346
      XZZZ      -0.6505   YZZZ    -104.7286   ZZZZ    -481.8206
 -----------------------------------------------------------------
 Total job time:  159.24s(wall), 156.46s(cpu) 
 Sun Jul 10 10:31:23 2022

        *************************************************************
        *                                                           *
        *  Thank you very much for using Q-Chem.  Have a nice day.  *
        *                                                           *
        *************************************************************


remove work dirs ./qchem1909042.0 -- ./qchem1909042.-1
rm -rf ./qchem1909042
You are running Q-Chem version: 5.4.0

#
# job setting
#
local host:  exp-12-30
current dir: /expanse/lustre/scratch/theleonzhang/temp_project/Hydrogenated_Impropers_Test
input file:  Methylthiophene_Phi_0_Theta_290_Methylthiophene_Hydrogenated_Improper_Alternate.qcin
output file: 
nprocs     : 0
nthreads   : 1
#
# qchem installation setting
#
QC:          /cm/shared/apps/spack/cpu/opt/spack/linux-centos8-zen2/gcc-10.2.0/qchem-5.4-akfmr7b3t57bfs6qan3padb2wnb2i7cl
QCAUX:       /cm/shared/apps/spack/cpu/opt/spack/linux-centos8-zen2/gcc-10.2.0/qchem-5.4-akfmr7b3t57bfs6qan3padb2wnb2i7cl/qcaux
QCPROG:      /cm/shared/apps/spack/cpu/opt/spack/linux-centos8-zen2/gcc-10.2.0/qchem-5.4-akfmr7b3t57bfs6qan3padb2wnb2i7cl/exe/qcprog.exe_s
QCPROG_S:    /cm/shared/apps/spack/cpu/opt/spack/linux-centos8-zen2/gcc-10.2.0/qchem-5.4-akfmr7b3t57bfs6qan3padb2wnb2i7cl/exe/qcprog.exe_s
PARALLEL:    -DSERIAL
QCMPI:       mpich
#
# qchem directory setting
#
qcrun:       qchem881044
QCSCRATCH:   .
QCLOCALSCR:  
QCTMPDIR:    .
QCFILEPREF:  ./qchem881044
QCSAVEDIR:   
workdirs:    ./qchem881044
workdir0:    ./qchem881044
partmpdirs =  
#
# parallel setting
#
QCRSH:           ssh
QCMPI:           mpich
QCMPIRUN:        /cm/shared/apps/spack/cpu/opt/spack/linux-centos8-zen2/gcc-10.2.0/qchem-5.4-akfmr7b3t57bfs6qan3padb2wnb2i7cl/bin/mpi/mpirun_qchem
QCMACHINEFILE:   ./qchem881044/hostfile

#
# env setting
#
exported envs:   QC QCAUX QCSCRATCH QCRUNNAME QCFILEPREF QCPROG QCPROG_S GUIFILE

Running Job 1 of 1 Methylthiophene_Phi_0_Theta_290_Methylthiophene_Hydrogenated_Improper_Alternate.qcin
qchem Methylthiophene_Phi_0_Theta_290_Methylthiophene_Hydrogenated_Improper_Alternate.qcin_881044.0 ./qchem881044/ 0
/cm/shared/apps/spack/cpu/opt/spack/linux-centos8-zen2/gcc-10.2.0/qchem-5.4-akfmr7b3t57bfs6qan3padb2wnb2i7cl/exe/qcprog.exe_s Methylthiophene_Phi_0_Theta_290_Methylthiophene_Hydrogenated_Improper_Alternate.qcin_881044.0 ./qchem881044/
                  Welcome to Q-Chem
     A Quantum Leap Into The Future Of Chemistry


 Q-Chem 5.4, Q-Chem, Inc., Pleasanton, CA (2021)

 License issued to: University of California, San Diego (site)

 E. Epifanovsky,  A. T. B. Gilbert,  Xintian Feng,  Joonho Lee,  Yuezhi Mao,  
 N. Mardirossian,  P. Pokhilko,  A. White,  M. Wormit,  M. P. Coons,  
 A. L. Dempwolff,  Zhengting Gan,  D. Hait,  P. R. Horn,  L. D. Jacobson,  
 I. Kaliman,  J. Kussmann,  A. W. Lange,  Ka Un Lao,  D. S. Levine,  Jie Liu,  
 S. C. McKenzie,  A. F. Morrison,  K. Nanda,  F. Plasser,  D. R. Rehn,  
 M. L. Vidal,  Zhi-Qiang You,  Ying Zhu,  B. Alam,  B. Albrecht,  
 A. Aldossary,  E. Alguire,  J. H. Andersen,  D. Barton,  K. Begam,  A. Behn,  
 Y. A. Bernard,  E. J. Berquist,  H. Burton,  A. Carreras,  K. Carter-Fenk,  
 R. Chakraborty,  A. D. Chien,  K. D. Closser,  V. Cofer-Shabica,  
 S. Dasgupta,  Jia Deng,  M. de Wergifosse,  M. Diedenhofen,  Hainam Do,  
 S. Ehlert,  Po-Tung Fang,  S. Fatehi,  Qingguo Feng,  J. Gayvert,  
 Qinghui Ge,  G. Gidofalvi,  M. Goldey,  J. Gomes,  C. Gonzalez-Espinoza,  
 S. Gulania,  A. Gunina,  M. W. D. Hanson-Heine,  P. H. P. Harbach,  
 A. W. Hauser,  M. F. Herbst,  M. Hernandez Vera,  M. Hodecker,  
 Z. C. Holden,  S. Houck,  Xunkun Huang,  Kerwin Hui,  B. C. Huynh,  
 M. Ivanov,  Hyunjun Ji,  Hanjie Jiang,  B. Kaduk,  S. Kaehler,  
 K. Khistyaev,  Jaehoon Kim,  P. Klunzinger,  Z. Koczor-Benda,  
 Joong Hoon Koh,  D. Kosenkov,  L. Koulias,  T. Kowalczyk,  C. M. Krauter,  
 K. Kue,  A. Kunitsa,  T. Kus,  A. Landau,  K. V. Lawler,  D. Lefrancois,  
 S. Lehtola,  Rain Li,  Yi-Pei Li,  Jiashu Liang,  M. Liebenthal,  
 Hung-Hsuan Lin,  You-Sheng Lin,  Fenglai Liu,  Kuan-Yu Liu,  
 M. Loipersberger,  A. Luenser,  A. Manjanath,  P. Manohar,  E. Mansoor,  
 S. F. Manzer,  Shan-Ping Mao,  A. V. Marenich,  T. Markovich,  S. Mason,  
 S. A. Maurer,  P. F. McLaughlin,  M. F. S. J. Menger,  J.-M. Mewes,  
 S. A. Mewes,  P. Morgante,  J. W. Mullinax,  T. S. Nguyen-Beck,  
 K. J. Oosterbaan,  G. Paran,  Alexander C. Paul,  Suranjan K. Paul,  
 F. Pavosevic,  Zheng Pei,  S. Prager,  E. I. Proynov,  E. Ramos,  B. Rana,  
 A. E. Rask,  A. Rettig,  R. M. Richard,  F. Rob,  E. Rossomme,  T. Scheele,  
 M. Scheurer,  M. Schneider,  N. Sergueev,  S. M. Sharada,  W. Skomorowski,  
 D. W. Small,  C. J. Stein,  Yu-Chuan Su,  E. J. Sundstrom,  Zhen Tao,  
 J. Thirman,  T. Tsuchimochi,  N. M. Tubman,  S. P. Veccham,  O. Vydrov,  
 J. Wenzel,  J. Witte,  A. Yamada,  Kun Yao,  S. Yeganeh,  S. R. Yost,  
 A. Zech,  Igor Ying Zhang,  Xing Zhang,  Yu Zhang,  D. Zuev,  
 A. Aspuru-Guzik,  A. T. Bell,  N. A. Besley,  K. B. Bravaya,  B. R. Brooks,  
 D. Casanova,  Jeng-Da Chai,  S. Coriani,  C. J. Cramer,  
 A. E. DePrince, III,  R. A. DiStasio Jr.,  A. Dreuw,  B. D. Dunietz,  
 T. R. Furlani,  W. A. Goddard III,  S. Grimme,  S. Hammes-Schiffer,  
 T. Head-Gordon,  W. J. Hehre,  Chao-Ping Hsu,  T.-C. Jagau,  Yousung Jung,  
 A. Klamt,  Jing Kong,  D. S. Lambrecht,  WanZhen Liang,  N. J. Mayhall,  
 C. W. McCurdy,  J. B. Neaton,  C. Ochsenfeld,  J. A. Parkhill,  R. Peverati,  
 V. A. Rassolov,  Yihan Shao,  L. V. Slipchenko,  T. Stauch,  R. P. Steele,  
 J. E. Subotnik,  A. J. W. Thom,  A. Tkatchenko,  D. G. Truhlar,  
 T. Van Voorhis,  T. A. Wesolowski,  K. B. Whaley,  H. L. Woodcock III,  
 P. M. Zimmerman,  S. Faraji,  P. M. W. Gill,  M. Head-Gordon,  
 J. M. Herbert,  A. I. Krylov

 Contributors to earlier versions of Q-Chem not listed above: 
 R. D. Adamson,  B. Austin,  R. Baer,  J. Baker,  G. J. O. Beran,  
 K. Brandhorst,  S. T. Brown,  E. F. C. Byrd,  A. K. Chakraborty,  
 G. K. L. Chan,  Chun-Min Chang,  Yunqing Chen,  C.-L. Cheng,  
 Siu Hung Chien,  D. M. Chipman,  D. L. Crittenden,  H. Dachsel,  
 R. J. Doerksen,  A. D. Dutoi,  R. G. Edgar,  J. Fosso-Tande,  
 L. Fusti-Molnar,  D. Ghosh,  A. Ghysels,  A. Golubeva-Zadorozhnaya,  
 J. Gonthier,  M. S. Gordon,  S. R. Gwaltney,  G. Hawkins,  J. E. Herr,  
 A. Heyden,  S. Hirata,  E. G. Hohenstein,  G. Kedziora,  F. J. Keil,  
 C. Kelley,  Jihan Kim,  R. A. King,  R. Z. Khaliullin,  P. P. Korambath,  
 W. Kurlancheek,  A. Laurent,  A. M. Lee,  M. S. Lee,  S. V. Levchenko,  
 Ching Yeh Lin,  D. Liotard,  E. Livshits,  R. C. Lochan,  I. Lotan,  
 L. A. Martinez-Martinez,  P. E. Maslen,  N. Nair,  D. P. O'Neill,  
 D. Neuhauser,  E. Neuscamman,  C. M. Oana,  R. Olivares-Amaya,  R. Olson,  
 T. M. Perrine,  B. Peters,  P. A. Pieniazek,  A. Prociuk,  Y. M. Rhee,  
 J. Ritchie,  M. A. Rohrdanz,  E. Rosta,  N. J. Russ,  H. F. Schaefer III,  
 M. W. Schmidt,  N. E. Schultz,  S. Sharma,  N. Shenvi,  C. D. Sherrill,  
 A. C. Simmonett,  A. Sodt,  T. Stein,  D. Stuck,  K. S. Thanthiriwatte,  
 V. Vanovschi,  L. Vogt,  Tao Wang,  A. Warshel,  M. A. Watson,  
 C. F. Williams,  Q. Wu,  X. Xu,  Jun Yang,  W. Zhang,  Yan Zhao

 Please cite Q-Chem as follows:
 Y. Shao et al., Mol. Phys. 113, 184-215 (2015)
 DOI: 10.1080/00268976.2014.952696

 Q-Chem 5.4.0 for Intel X86 EM64T Linux

 Parts of Q-Chem use Armadillo 9.800.1 (Horizon Scraper).
 http://arma.sourceforge.net/

 Q-Chem begins on Sun Jul 10 10:57:11 2022  

 Host: 
0

     Scratch files written to ./qchem881044//
 May1621 |scratch|qcdevops|jenkins|workspace|build_RNUM    
 Processing $rem in /cm/shared/apps/spack/cpu/opt/spack/linux-centos8-zen2/gcc-10.2.0/qchem-5.4-akfmr7b3t57bfs6qan3padb2wnb2i7cl/config/preferences:
 Processing $rem in /home/theleonzhang/.qchemrc:
 Symmetry turned off for PCM/SM12/SMD calculation
 Core orbitals will be frozen

 Checking the input file for inconsistencies... 	...done.

--------------------------------------------------------------
User input:
--------------------------------------------------------------
$molecule
0 1
C	-0.002218	-0.576309	0.019394
C	-0.002218	0.287291	1.118794
C	-0.002118	1.671191	0.796094
H	-0.002218	-0.081509	2.155494
C	-0.002118	1.891891	-0.593106
S	-0.002218	0.366091	-1.467406
C	-0.002118	2.758991	1.833994
H	-0.002118	2.333291	2.856094
H	-0.894518	3.413291	1.745594
H	0.890282	3.413191	1.745594
C	-0.002218	-2.017009	0.019394
H	0.367282	-2.017209	-0.995406
H	-0.772018	-2.720809	-0.260806
H	0.887782	-2.535909	0.343294
H	-0.002118	2.841091	-1.142206
$end

$rem
JOBTYPE		SP
EXCHANGE	HF
CORRELATION	pRIMP2
BASIS		cc-pvtz
METHOD		rimp2
AUX_BASIS	rimp2-cc-pvtz
SOLVENT_METHOD	PCM
PURECART	11111
SYMMETRY	false
MEM_TOTAL	110000
SCF_CONVERGENCE = 6
THRESH=10
$end



$solvent
dielectric 4.90
$end
--------------------------------------------------------------
 ----------------------------------------------------------------
             Standard Nuclear Orientation (Angstroms)
    I     Atom           X                Y                Z
 ----------------------------------------------------------------
    1      C      -0.0022180000    -0.5763090000     0.0193940000
    2      C      -0.0022180000     0.2872910000     1.1187940000
    3      C      -0.0021180000     1.6711910000     0.7960940000
    4      H      -0.0022180000    -0.0815090000     2.1554940000
    5      C      -0.0021180000     1.8918910000    -0.5931060000
    6      S      -0.0022180000     0.3660910000    -1.4674060000
    7      C      -0.0021180000     2.7589910000     1.8339940000
    8      H      -0.0021180000     2.3332910000     2.8560940000
    9      H      -0.8945180000     3.4132910000     1.7455940000
   10      H       0.8902820000     3.4131910000     1.7455940000
   11      C      -0.0022180000    -2.0170090000     0.0193940000
   12      H       0.3672820000    -2.0172090000    -0.9954060000
   13      H      -0.7720180000    -2.7208090000    -0.2608060000
   14      H       0.8877820000    -2.5359090000     0.3432940000
   15      H      -0.0021180000     2.8410910000    -1.1422060000
 ----------------------------------------------------------------
 Nuclear Repulsion Energy =         344.66521126 hartrees
 There are       30 alpha and       30 beta electrons

 Q-Chem warning in module forms1/BasisType.C, line 2236:

 You are not using the predefined 5D/6D in this basis set.

 Requested basis set is cc-pVTZ
 There are 120 shells and 326 basis functions

 Total QAlloc Memory Limit 110000 MB
 Mega-Array Size       188 MB
 MEM_STATIC part       192 MB
 Discretize the solute cavity surface with Lebedev spheres
	Using 110 Lebedev grid points for each H atom
	Using 194 Lebedev grid points for other atoms
	Atomic van der Waals radii will be scaled by 1.20
 Remove points where switching function is < 1.0e-08
 Keep 1060 surface tesserae and discard 1178 interior tesserae
 Molecular Surface Area = 158.932 Angst**2

                       Distance Matrix (Angstroms)
             C (  1)   C (  2)   C (  3)   H (  4)   C (  5)   S (  6)
   C (  2)  1.398029
   C (  3)  2.377923  1.421026
   H (  4)  2.192658  1.100346  2.218091
   C (  5)  2.543063  2.346347  1.406622  3.383653
   S (  6)  1.760310  2.587400  2.612799  3.650445  1.758541
   C (  7)  3.796972  2.573094  1.503511  2.858636  2.577339  4.077403
   H (  8)  4.063575  2.684088  2.163788  2.514379  3.477329  4.750003
   H (  9)  4.437665  3.310733  2.175509  3.630130  2.929258  4.517189
   H ( 10)  4.437616  3.310693  2.175429  3.630083  2.929206  4.517161
   C ( 11)  1.440700  2.553131  3.769096  2.882548  3.956596  2.808868
   H ( 12)  1.800706  3.149141  4.117065  3.716401  3.947070  2.457526
   H ( 13)  2.295645  3.397728  4.582515  3.660192  4.688301  3.402562
   H ( 14)  2.176475  3.060059  4.323961  3.178089  4.612394  3.534450
   H ( 15)  3.609423  3.410867  2.263995  4.406406  1.096582  2.496273
             C (  7)   H (  8)   H (  9)   H ( 10)   C ( 11)   H ( 12)
   H (  8)  1.107208
   H (  9)  1.110090  1.787733
   H ( 10)  1.110032  1.787672  1.784800
   C ( 11)  5.109105  5.193455  5.767506  5.767443
   H ( 12)  5.563636  5.822144  6.212532  6.105395  1.079977
   H ( 13)  5.916852  5.987632  6.455062  6.664446  1.080018  1.527316
   H ( 14)  5.572259  5.551144  6.366790  6.112139  1.079939  1.527117
   H ( 15)  2.977332  4.030417  3.076228  3.076210  4.995043  4.874534
             H ( 13)   H ( 14)
   H ( 14)  1.775968
   H ( 15)  5.683691  5.648961
 
 Requested basis set is rimp2-cc-pVTZ
 There are 250 shells and 848 basis functions
 A cutoff of  1.0D-10 yielded   6173 shell pairs
 There are     45177 function pairs (     58082 Cartesian)
 Smallest overlap matrix eigenvalue = 9.86E-05

 Scale SEOQF with 1.000000e+00/1.000000e-01/1.000000e-01

 Standard Electronic Orientation quadrupole field applied
 Nucleus-field energy     =     0.0000000035 hartrees
 Guess from superposition of atomic densities
 Warning:  Energy on first SCF cycle will be non-variational
 SAD guess density has 60.000000 electrons

 -----------------------------------------------------------------------
  General SCF calculation program by
  Eric Jon Sundstrom, Paul Horn, Yuezhi Mao, Dmitri Zuev, Alec White,
  David Stuck, Shaama M.S., Shane Yost, Joonho Lee, David Small,
  Daniel Levine, Susi Lehtola, Hugh Burton, Evgeny Epifanovsky,
  Bang C. Huynh
 -----------------------------------------------------------------------
 Hartree-Fock
 A restricted SCF calculation will be
 performed using DIIS
 SCF converges when DIIS error is below 1.0e-06
 ---------------------------------------
  Cycle       Energy         DIIS error
 ---------------------------------------
    1    -632.1075187951      2.92e-02  
    2    -629.3409846096      1.94e-03  
    3    -629.4114363063      6.80e-04  
    4    -629.4189697440      3.42e-04  
    5    -629.4210604177      6.41e-05  
    6    -629.4211962467      2.62e-05  
    7    -629.4212304936      1.16e-05  
    8    -629.4212399398      4.98e-06  
    9    -629.4212413582      1.74e-06  
   10    -629.4212415342      5.56e-07  Convergence criterion met
 ---------------------------------------
 SCF time:   CPU 143.31s  wall 145.00s 

************** Final PCM Free Energy Summary **************
 G_electrostatic  =      -0.00512263 hartree =      -3.21449686 kcal/mol
 G_cavitation     =       0.00000000 hartree =       0.00000000 kcal/mol
 G_dispersion     =       0.00000000 hartree =       0.00000000 kcal/mol
 G_repulsion      =       0.00000000 hartree =       0.00000000 kcal/mol
 --------------------------------------------------
 Non-electrostatic Free Energy =       0.00000000 hartree =       0.00000000 kcal/mol
 Total                         =      -0.00512263 hartree =      -3.21449686 kcal/mol
 --------------------------------------------------
 SCF Energy (H0 + V/2)                       =    -629.42124153 
 Solute Internal Energy (H0)                 =    -629.41611891 
 Total Free Energy (H0 + V/2 + non-elec)     =    -629.42124153 hartree
                                             = -394967.79031126 kcal/mol
***********************************************************

 SCF   energy in the final basis set =     -629.4212415342
 Total energy in the final basis set =     -629.4212415342


 --------------------------------------------------------------
  Generalized many-body perturbation theory program
  by Joonho Lee, Fazle Rob, Xintian Feng, Evgeny Epifanovsky

 No regularization used 
 (reg. param. = 0.0000e+00)
  (P|Q)^-1/2 Time:  CPU 0.48 s  wall 0.48 s

 In RI-MP2 calculation: 
 # of frozen core orbitals: 11

 Components of the RIMP2 correlation energy:
        aaaa    correlation energy =        -0.1455138964 a.u.
        abab    correlation energy =        -0.8865139188 a.u.
        bbbb    correlation energy =        -0.1455138964 a.u.
        non-Brillouin singles      =        -0.0000000000 a.u.
        total same-spin energy     =        -0.2910277927 a.u.
        total opposite-spin energy =        -0.8865139188 a.u.

 Total  RIMP2   correlation energy =        -1.1775417115 a.u.
        RIMP2         total energy =      -630.5987832456 a.u.

 RI-MP2 Energy Time:  CPU 11.00 s  wall 11.04 s
 
 --------------------------------------------------------------
 
                    Orbital Energies (a.u.)
 --------------------------------------------------------------
 
 Alpha MOs
 -- Occupied --
-91.9800 -11.2761 -11.2570 -11.2471 -11.2289 -11.2268 -11.2165  -8.9799
 -6.6608  -6.6603  -6.6597  -1.1608  -1.0552  -0.9955  -0.9461  -0.8818
 -0.7476  -0.7186  -0.6480  -0.5915  -0.5755  -0.5666  -0.5527  -0.5474
 -0.5088  -0.4866  -0.4649  -0.4458  -0.3385  -0.3021
 -- Virtual --
  0.1045   0.1423   0.1498   0.1741   0.1885   0.1918   0.1961   0.2306
  0.2397   0.2440   0.2464   0.2773   0.2881   0.3182   0.3415   0.3498
  0.3759   0.3984   0.4060   0.4134   0.4410   0.4693   0.4720   0.4810
  0.4923   0.5037   0.5272   0.5291   0.5359   0.5652   0.5823   0.5957
  0.5999   0.6056   0.6150   0.6170   0.6330   0.6414   0.6420   0.6498
  0.6606   0.6623   0.6905   0.7066   0.7331   0.7411   0.7682   0.7804
  0.8002   0.8171   0.8422   0.8556   0.8695   0.8993   0.9066   0.9389
  0.9590   0.9640   0.9796   1.0077   1.0364   1.0476   1.0623   1.0760
  1.0833   1.0852   1.1137   1.1335   1.1573   1.1711   1.1932   1.2129
  1.2186   1.2414   1.2552   1.2579   1.2694   1.3020   1.3053   1.3197
  1.3587   1.3846   1.4025   1.4096   1.4313   1.4378   1.4577   1.4788
  1.4914   1.5079   1.5306   1.5412   1.5516   1.5613   1.5718   1.5864
  1.6215   1.6250   1.6372   1.6690   1.6883   1.6968   1.7116   1.7478
  1.7636   1.7811   1.8191   1.8379   1.8906   1.8970   1.9187   1.9656
  1.9913   2.0474   2.1013   2.1320   2.1852   2.1980   2.2174   2.2423
  2.2589   2.3002   2.3595   2.4142   2.4547   2.5057   2.5246   2.5604
  2.5737   2.6081   2.6185   2.6543   2.6742   2.6783   2.7208   2.7321
  2.7478   2.7583   2.7890   2.7945   2.8200   2.8471   2.8506   2.8858
  2.9117   2.9209   2.9353   2.9693   2.9977   3.0143   3.0502   3.0760
  3.0978   3.1143   3.1282   3.1404   3.1480   3.1621   3.1763   3.1934
  3.2295   3.2446   3.2548   3.2675   3.2902   3.3025   3.3049   3.3227
  3.3402   3.3590   3.3742   3.3883   3.3954   3.4187   3.4277   3.4352
  3.4506   3.4567   3.4889   3.4998   3.5103   3.5125   3.5260   3.5677
  3.5872   3.5977   3.6113   3.6187   3.6324   3.6357   3.6595   3.6793
  3.7016   3.7166   3.7307   3.7636   3.7647   3.7812   3.7832   3.8021
  3.8160   3.8309   3.8702   3.8832   3.9177   3.9239   3.9285   3.9522
  3.9600   3.9707   4.0073   4.0220   4.0325   4.0576   4.0964   4.1025
  4.1405   4.1472   4.1614   4.1750   4.1856   4.2140   4.2240   4.2467
  4.2824   4.2844   4.3091   4.3381   4.3428   4.3548   4.3897   4.4027
  4.4113   4.4345   4.4404   4.4510   4.4737   4.4783   4.5391   4.5562
  4.5953   4.6228   4.6439   4.6531   4.7162   4.7465   4.7537   4.7889
  4.7935   4.8180   4.8594   4.9044   4.9324   5.0051   5.0945   5.0980
  5.1294   5.1308   5.1675   5.1981   5.2502   5.2817   5.2960   5.3100
  5.3643   5.4046   5.4111   5.4422   5.4644   5.4936   5.5499   5.5634
  5.5948   5.6216   5.6279   5.6998   5.7354   5.8257   5.8343   5.8771
  5.9176   5.9618   6.0620   6.1332   6.2270   6.2506   6.3080   6.3888
  6.4159   6.5105   9.2082  11.3981  12.9280  13.9041  14.1819  14.5218
 --------------------------------------------------------------
 
          Ground-State Mulliken Net Atomic Charges

     Atom                 Charge (a.u.)
  ----------------------------------------
      1 C                     0.055870
      2 C                    -0.264310
      3 C                     0.038301
      4 H                     0.180356
      5 C                    -0.259400
      6 S                    -0.002295
      7 C                    -0.273309
      8 H                     0.101811
      9 H                     0.106974
     10 H                     0.106903
     11 C                    -0.370898
     12 H                     0.113578
     13 H                     0.140125
     14 H                     0.131371
     15 H                     0.194922
  ----------------------------------------
  Sum of atomic charges =     0.000000

 -----------------------------------------------------------------
                    Cartesian Multipole Moments
 -----------------------------------------------------------------
    Charge (ESU x 10^10)
                -0.0000
    Dipole Moment (Debye)
         X       0.2389      Y      -0.0318      Z       0.8812
       Tot       0.9136
    Quadrupole Moments (Debye-Ang)
        XX     -53.7771     XY      -0.4210     YY     -42.1375
        XZ       0.2199     YZ       1.4949     ZZ     -48.8053
    Octopole Moments (Debye-Ang^2)
       XXX      -0.2438    XXY     -32.6707    XYY       0.3086
       YYY     -78.7193    XXZ      -1.5492    XYZ      -0.8398
       YYZ      -7.5968    XZZ      -0.1467    YZZ     -23.5445
       ZZZ       2.1100
    Hexadecapole Moments (Debye-Ang^3)
      XXXX     -78.5419   XXXY       1.0896   XXYY    -157.6541
      XYYY       1.8749   YYYY    -813.7401   XXXZ       0.2677
      XXYZ     -31.5186   XYYZ       2.5073   YYYZ    -100.9680
      XXZZ    -101.6307   XYZZ       0.5560   YYZZ    -217.3346
      XZZZ      -0.6505   YZZZ    -104.7286   ZZZZ    -481.8206
 -----------------------------------------------------------------
 Total job time:  156.27s(wall), 154.66s(cpu) 
 Sun Jul 10 10:59:47 2022

        *************************************************************
        *                                                           *
        *  Thank you very much for using Q-Chem.  Have a nice day.  *
        *                                                           *
        *************************************************************


remove work dirs ./qchem881044.0 -- ./qchem881044.-1
rm -rf ./qchem881044
