You are running Q-Chem version: 5.4.0

#
# job setting
#
local host:  exp-13-53
current dir: /expanse/lustre/scratch/theleonzhang/temp_project/Hydrogenated_Impropers_Test
input file:  Methylthiophene_Phi_15_Theta_220_Methylthiophene_Hydrogenated_Improper_Alternate.qcin
output file: 
nprocs     : 0
nthreads   : 1
#
# qchem installation setting
#
QC:          /cm/shared/apps/spack/cpu/opt/spack/linux-centos8-zen2/gcc-10.2.0/qchem-5.4-akfmr7b3t57bfs6qan3padb2wnb2i7cl
QCAUX:       /cm/shared/apps/spack/cpu/opt/spack/linux-centos8-zen2/gcc-10.2.0/qchem-5.4-akfmr7b3t57bfs6qan3padb2wnb2i7cl/qcaux
QCPROG:      /cm/shared/apps/spack/cpu/opt/spack/linux-centos8-zen2/gcc-10.2.0/qchem-5.4-akfmr7b3t57bfs6qan3padb2wnb2i7cl/exe/qcprog.exe_s
QCPROG_S:    /cm/shared/apps/spack/cpu/opt/spack/linux-centos8-zen2/gcc-10.2.0/qchem-5.4-akfmr7b3t57bfs6qan3padb2wnb2i7cl/exe/qcprog.exe_s
PARALLEL:    -DSERIAL
QCMPI:       mpich
#
# qchem directory setting
#
qcrun:       qchem759932
QCSCRATCH:   .
QCLOCALSCR:  
QCTMPDIR:    .
QCFILEPREF:  ./qchem759932
QCSAVEDIR:   
workdirs:    ./qchem759932
workdir0:    ./qchem759932
partmpdirs =  
#
# parallel setting
#
QCRSH:           ssh
QCMPI:           mpich
QCMPIRUN:        /cm/shared/apps/spack/cpu/opt/spack/linux-centos8-zen2/gcc-10.2.0/qchem-5.4-akfmr7b3t57bfs6qan3padb2wnb2i7cl/bin/mpi/mpirun_qchem
QCMACHINEFILE:   ./qchem759932/hostfile

#
# env setting
#
exported envs:   QC QCAUX QCSCRATCH QCRUNNAME QCFILEPREF QCPROG QCPROG_S GUIFILE

Running Job 1 of 1 Methylthiophene_Phi_15_Theta_220_Methylthiophene_Hydrogenated_Improper_Alternate.qcin
qchem Methylthiophene_Phi_15_Theta_220_Methylthiophene_Hydrogenated_Improper_Alternate.qcin_759932.0 ./qchem759932/ 0
/cm/shared/apps/spack/cpu/opt/spack/linux-centos8-zen2/gcc-10.2.0/qchem-5.4-akfmr7b3t57bfs6qan3padb2wnb2i7cl/exe/qcprog.exe_s Methylthiophene_Phi_15_Theta_220_Methylthiophene_Hydrogenated_Improper_Alternate.qcin_759932.0 ./qchem759932/
                  Welcome to Q-Chem
     A Quantum Leap Into The Future Of Chemistry


 Q-Chem 5.4, Q-Chem, Inc., Pleasanton, CA (2021)

 License issued to: University of California, San Diego (site)

 E. Epifanovsky,  A. T. B. Gilbert,  Xintian Feng,  Joonho Lee,  Yuezhi Mao,  
 N. Mardirossian,  P. Pokhilko,  A. White,  M. Wormit,  M. P. Coons,  
 A. L. Dempwolff,  Zhengting Gan,  D. Hait,  P. R. Horn,  L. D. Jacobson,  
 I. Kaliman,  J. Kussmann,  A. W. Lange,  Ka Un Lao,  D. S. Levine,  Jie Liu,  
 S. C. McKenzie,  A. F. Morrison,  K. Nanda,  F. Plasser,  D. R. Rehn,  
 M. L. Vidal,  Zhi-Qiang You,  Ying Zhu,  B. Alam,  B. Albrecht,  
 A. Aldossary,  E. Alguire,  J. H. Andersen,  D. Barton,  K. Begam,  A. Behn,  
 Y. A. Bernard,  E. J. Berquist,  H. Burton,  A. Carreras,  K. Carter-Fenk,  
 R. Chakraborty,  A. D. Chien,  K. D. Closser,  V. Cofer-Shabica,  
 S. Dasgupta,  Jia Deng,  M. de Wergifosse,  M. Diedenhofen,  Hainam Do,  
 S. Ehlert,  Po-Tung Fang,  S. Fatehi,  Qingguo Feng,  J. Gayvert,  
 Qinghui Ge,  G. Gidofalvi,  M. Goldey,  J. Gomes,  C. Gonzalez-Espinoza,  
 S. Gulania,  A. Gunina,  M. W. D. Hanson-Heine,  P. H. P. Harbach,  
 A. W. Hauser,  M. F. Herbst,  M. Hernandez Vera,  M. Hodecker,  
 Z. C. Holden,  S. Houck,  Xunkun Huang,  Kerwin Hui,  B. C. Huynh,  
 M. Ivanov,  Hyunjun Ji,  Hanjie Jiang,  B. Kaduk,  S. Kaehler,  
 K. Khistyaev,  Jaehoon Kim,  P. Klunzinger,  Z. Koczor-Benda,  
 Joong Hoon Koh,  D. Kosenkov,  L. Koulias,  T. Kowalczyk,  C. M. Krauter,  
 K. Kue,  A. Kunitsa,  T. Kus,  A. Landau,  K. V. Lawler,  D. Lefrancois,  
 S. Lehtola,  Rain Li,  Yi-Pei Li,  Jiashu Liang,  M. Liebenthal,  
 Hung-Hsuan Lin,  You-Sheng Lin,  Fenglai Liu,  Kuan-Yu Liu,  
 M. Loipersberger,  A. Luenser,  A. Manjanath,  P. Manohar,  E. Mansoor,  
 S. F. Manzer,  Shan-Ping Mao,  A. V. Marenich,  T. Markovich,  S. Mason,  
 S. A. Maurer,  P. F. McLaughlin,  M. F. S. J. Menger,  J.-M. Mewes,  
 S. A. Mewes,  P. Morgante,  J. W. Mullinax,  T. S. Nguyen-Beck,  
 K. J. Oosterbaan,  G. Paran,  Alexander C. Paul,  Suranjan K. Paul,  
 F. Pavosevic,  Zheng Pei,  S. Prager,  E. I. Proynov,  E. Ramos,  B. Rana,  
 A. E. Rask,  A. Rettig,  R. M. Richard,  F. Rob,  E. Rossomme,  T. Scheele,  
 M. Scheurer,  M. Schneider,  N. Sergueev,  S. M. Sharada,  W. Skomorowski,  
 D. W. Small,  C. J. Stein,  Yu-Chuan Su,  E. J. Sundstrom,  Zhen Tao,  
 J. Thirman,  T. Tsuchimochi,  N. M. Tubman,  S. P. Veccham,  O. Vydrov,  
 J. Wenzel,  J. Witte,  A. Yamada,  Kun Yao,  S. Yeganeh,  S. R. Yost,  
 A. Zech,  Igor Ying Zhang,  Xing Zhang,  Yu Zhang,  D. Zuev,  
 A. Aspuru-Guzik,  A. T. Bell,  N. A. Besley,  K. B. Bravaya,  B. R. Brooks,  
 D. Casanova,  Jeng-Da Chai,  S. Coriani,  C. J. Cramer,  
 A. E. DePrince, III,  R. A. DiStasio Jr.,  A. Dreuw,  B. D. Dunietz,  
 T. R. Furlani,  W. A. Goddard III,  S. Grimme,  S. Hammes-Schiffer,  
 T. Head-Gordon,  W. J. Hehre,  Chao-Ping Hsu,  T.-C. Jagau,  Yousung Jung,  
 A. Klamt,  Jing Kong,  D. S. Lambrecht,  WanZhen Liang,  N. J. Mayhall,  
 C. W. McCurdy,  J. B. Neaton,  C. Ochsenfeld,  J. A. Parkhill,  R. Peverati,  
 V. A. Rassolov,  Yihan Shao,  L. V. Slipchenko,  T. Stauch,  R. P. Steele,  
 J. E. Subotnik,  A. J. W. Thom,  A. Tkatchenko,  D. G. Truhlar,  
 T. Van Voorhis,  T. A. Wesolowski,  K. B. Whaley,  H. L. Woodcock III,  
 P. M. Zimmerman,  S. Faraji,  P. M. W. Gill,  M. Head-Gordon,  
 J. M. Herbert,  A. I. Krylov

 Contributors to earlier versions of Q-Chem not listed above: 
 R. D. Adamson,  B. Austin,  R. Baer,  J. Baker,  G. J. O. Beran,  
 K. Brandhorst,  S. T. Brown,  E. F. C. Byrd,  A. K. Chakraborty,  
 G. K. L. Chan,  Chun-Min Chang,  Yunqing Chen,  C.-L. Cheng,  
 Siu Hung Chien,  D. M. Chipman,  D. L. Crittenden,  H. Dachsel,  
 R. J. Doerksen,  A. D. Dutoi,  R. G. Edgar,  J. Fosso-Tande,  
 L. Fusti-Molnar,  D. Ghosh,  A. Ghysels,  A. Golubeva-Zadorozhnaya,  
 J. Gonthier,  M. S. Gordon,  S. R. Gwaltney,  G. Hawkins,  J. E. Herr,  
 A. Heyden,  S. Hirata,  E. G. Hohenstein,  G. Kedziora,  F. J. Keil,  
 C. Kelley,  Jihan Kim,  R. A. King,  R. Z. Khaliullin,  P. P. Korambath,  
 W. Kurlancheek,  A. Laurent,  A. M. Lee,  M. S. Lee,  S. V. Levchenko,  
 Ching Yeh Lin,  D. Liotard,  E. Livshits,  R. C. Lochan,  I. Lotan,  
 L. A. Martinez-Martinez,  P. E. Maslen,  N. Nair,  D. P. O'Neill,  
 D. Neuhauser,  E. Neuscamman,  C. M. Oana,  R. Olivares-Amaya,  R. Olson,  
 T. M. Perrine,  B. Peters,  P. A. Pieniazek,  A. Prociuk,  Y. M. Rhee,  
 J. Ritchie,  M. A. Rohrdanz,  E. Rosta,  N. J. Russ,  H. F. Schaefer III,  
 M. W. Schmidt,  N. E. Schultz,  S. Sharma,  N. Shenvi,  C. D. Sherrill,  
 A. C. Simmonett,  A. Sodt,  T. Stein,  D. Stuck,  K. S. Thanthiriwatte,  
 V. Vanovschi,  L. Vogt,  Tao Wang,  A. Warshel,  M. A. Watson,  
 C. F. Williams,  Q. Wu,  X. Xu,  Jun Yang,  W. Zhang,  Yan Zhao

 Please cite Q-Chem as follows:
 Y. Shao et al., Mol. Phys. 113, 184-215 (2015)
 DOI: 10.1080/00268976.2014.952696

 Q-Chem 5.4.0 for Intel X86 EM64T Linux

 Parts of Q-Chem use Armadillo 9.800.1 (Horizon Scraper).
 http://arma.sourceforge.net/

 Q-Chem begins on Sun Jul 10 10:50:55 2022  

 Host: 
0

     Scratch files written to ./qchem759932//
 May1621 |scratch|qcdevops|jenkins|workspace|build_RNUM    
 Processing $rem in /cm/shared/apps/spack/cpu/opt/spack/linux-centos8-zen2/gcc-10.2.0/qchem-5.4-akfmr7b3t57bfs6qan3padb2wnb2i7cl/config/preferences:
 Processing $rem in /home/theleonzhang/.qchemrc:
 Symmetry turned off for PCM/SM12/SMD calculation
 Core orbitals will be frozen

 Checking the input file for inconsistencies... 	...done.

--------------------------------------------------------------
User input:
--------------------------------------------------------------
$molecule
0 1
C	-0.179660	-0.553191	0.012353
C	0.043840	0.281009	1.111753
C	0.402040	1.617709	0.789053
H	-0.051560	-0.075291	2.148453
C	0.459240	1.830809	-0.600147
S	0.064240	0.357109	-1.474447
C	0.683640	2.668409	1.826953
H	0.573440	2.257309	2.849053
H	-0.008960	3.531409	1.738553
H	1.714940	3.069409	1.738553
C	-0.179660	-1.993891	0.012353
H	0.647640	-1.993591	0.706653
H	-0.706260	-2.697691	0.639853
H	0.429140	-2.512791	-0.713247
H	0.704940	2.747709	-1.149247
$end

$rem
JOBTYPE		SP
EXCHANGE	HF
CORRELATION	pRIMP2
BASIS		cc-pvtz
METHOD		rimp2
AUX_BASIS	rimp2-cc-pvtz
SOLVENT_METHOD	PCM
PURECART	11111
SYMMETRY	false
MEM_TOTAL	110000
SCF_CONVERGENCE = 6
THRESH=10
$end



$solvent
dielectric 4.90
$end
--------------------------------------------------------------
 ----------------------------------------------------------------
             Standard Nuclear Orientation (Angstroms)
    I     Atom           X                Y                Z
 ----------------------------------------------------------------
    1      C      -0.1796600000    -0.5531910000     0.0123530000
    2      C       0.0438400000     0.2810090000     1.1117530000
    3      C       0.4020400000     1.6177090000     0.7890530000
    4      H      -0.0515600000    -0.0752910000     2.1484530000
    5      C       0.4592400000     1.8308090000    -0.6001470000
    6      S       0.0642400000     0.3571090000    -1.4744470000
    7      C       0.6836400000     2.6684090000     1.8269530000
    8      H       0.5734400000     2.2573090000     2.8490530000
    9      H      -0.0089600000     3.5314090000     1.7385530000
   10      H       1.7149400000     3.0694090000     1.7385530000
   11      C      -0.1796600000    -1.9938910000     0.0123530000
   12      H       0.6476400000    -1.9935910000     0.7066530000
   13      H      -0.7062600000    -2.6976910000     0.6398530000
   14      H       0.4291400000    -2.5127910000    -0.7132470000
   15      H       0.7049400000     2.7477090000    -1.1492470000
 ----------------------------------------------------------------
 Nuclear Repulsion Energy =         344.90919289 hartrees
 There are       30 alpha and       30 beta electrons

 Q-Chem warning in module forms1/BasisType.C, line 2236:

 You are not using the predefined 5D/6D in this basis set.

 Requested basis set is cc-pVTZ
 There are 120 shells and 326 basis functions

 Total QAlloc Memory Limit 110000 MB
 Mega-Array Size       188 MB
 MEM_STATIC part       192 MB
 Discretize the solute cavity surface with Lebedev spheres
	Using 110 Lebedev grid points for each H atom
	Using 194 Lebedev grid points for other atoms
	Atomic van der Waals radii will be scaled by 1.20
 Remove points where switching function is < 1.0e-08
 Keep 1055 surface tesserae and discard 1183 interior tesserae
 Molecular Surface Area = 158.312 Angst**2

                       Distance Matrix (Angstroms)
             C (  1)   C (  2)   C (  3)   H (  4)   C (  5)   S (  6)
   C (  2)  1.398042
   C (  3)  2.377908  1.420989
   H (  4)  2.192652  1.100363  2.218101
   C (  5)  2.542991  2.346282  1.406613  3.383628
   S (  6)  1.760315  2.587400  2.612787  3.650450  1.758470
   C (  7)  3.796942  2.573040  1.503498  2.858631  2.577352  4.077377
   H (  8)  4.063611  2.684110  2.163808  2.514456  3.477344  4.750021
   H (  9)  4.437664  3.310705  2.175481  3.630168  2.929295  4.517179
   H ( 10)  4.437624  3.310684  2.175475  3.630107  2.929237  4.517162
   C ( 11)  1.440700  2.536494  3.739691  2.874084  3.925771  2.792358
   H ( 12)  1.800342  2.387988  3.620580  2.499509  4.045894  3.259347
   H ( 13)  2.295636  3.107731  4.457944  3.095398  4.837696  3.794172
   H ( 14)  2.176503  3.359226  4.395301  3.789697  4.345176  2.991472
   H ( 15)  3.609401  3.410833  2.263991  4.406410  1.096624  2.496241
             C (  7)   H (  8)   H (  9)   H ( 10)   C ( 11)   H ( 12)
   H (  8)  1.107175
   H (  9)  1.110080  1.787661
   H ( 10)  1.110043  1.787663  1.784734
   C ( 11)  5.076918  5.165920  5.791187  5.675058
   H ( 12)  4.794853  4.760833  5.658760  5.276165  1.080036
   H ( 13)  5.668867  5.574067  6.363573  6.350496  1.079999  1.527503
   H ( 14)  5.776004  5.955221  6.537248  6.231016  1.079995  1.527556
   H ( 15)  2.977332  4.030408  3.076236  3.076196  4.961311  5.091913
             H ( 13)   H ( 14)
   H ( 14)  1.776007
   H ( 15)  5.902944  5.285738
 
 Requested basis set is rimp2-cc-pVTZ
 There are 250 shells and 848 basis functions
 A cutoff of  1.0D-10 yielded   6197 shell pairs
 There are     45371 function pairs (     58351 Cartesian)
 Smallest overlap matrix eigenvalue = 1.03E-04

 Scale SEOQF with 1.000000e-01/1.000000e-01/1.000000e-01

 Standard Electronic Orientation quadrupole field applied
 Nucleus-field energy     =     0.0000000021 hartrees
 Guess from superposition of atomic densities
 Warning:  Energy on first SCF cycle will be non-variational
 SAD guess density has 60.000000 electrons

 -----------------------------------------------------------------------
  General SCF calculation program by
  Eric Jon Sundstrom, Paul Horn, Yuezhi Mao, Dmitri Zuev, Alec White,
  David Stuck, Shaama M.S., Shane Yost, Joonho Lee, David Small,
  Daniel Levine, Susi Lehtola, Hugh Burton, Evgeny Epifanovsky,
  Bang C. Huynh
 -----------------------------------------------------------------------
 Hartree-Fock
 A restricted SCF calculation will be
 performed using DIIS
 SCF converges when DIIS error is below 1.0e-06
 ---------------------------------------
  Cycle       Energy         DIIS error
 ---------------------------------------
    1    -632.1087419711      2.92e-02  
    2    -629.3390669807      1.94e-03  
    3    -629.4092213709      6.79e-04  
    4    -629.4166231529      3.50e-04  
    5    -629.4187471957      6.25e-05  
    6    -629.4188757750      2.55e-05  
    7    -629.4189068200      1.12e-05  
    8    -629.4189156412      5.16e-06  
    9    -629.4189171721      1.70e-06  
   10    -629.4189173616      5.88e-07  Convergence criterion met
 ---------------------------------------
 SCF time:   CPU 143.89s  wall 144.00s 

************** Final PCM Free Energy Summary **************
 G_electrostatic  =      -0.00552824 hartree =      -3.46902384 kcal/mol
 G_cavitation     =       0.00000000 hartree =       0.00000000 kcal/mol
 G_dispersion     =       0.00000000 hartree =       0.00000000 kcal/mol
 G_repulsion      =       0.00000000 hartree =       0.00000000 kcal/mol
 --------------------------------------------------
 Non-electrostatic Free Energy =       0.00000000 hartree =       0.00000000 kcal/mol
 Total                         =      -0.00552824 hartree =      -3.46902384 kcal/mol
 --------------------------------------------------
 SCF Energy (H0 + V/2)                       =    -629.41891736 
 Solute Internal Energy (H0)                 =    -629.41338912 
 Total Free Energy (H0 + V/2 + non-elec)     =    -629.41891736 hartree
                                             = -394966.33187099 kcal/mol
***********************************************************

 SCF   energy in the final basis set =     -629.4189173616
 Total energy in the final basis set =     -629.4189173616


 --------------------------------------------------------------
  Generalized many-body perturbation theory program
  by Joonho Lee, Fazle Rob, Xintian Feng, Evgeny Epifanovsky

 No regularization used 
 (reg. param. = 0.0000e+00)
  (P|Q)^-1/2 Time:  CPU 0.48 s  wall 0.48 s

 In RI-MP2 calculation: 
 # of frozen core orbitals: 11

 Components of the RIMP2 correlation energy:
        aaaa    correlation energy =        -0.1456107317 a.u.
        abab    correlation energy =        -0.8865249164 a.u.
        bbbb    correlation energy =        -0.1456107317 a.u.
        non-Brillouin singles      =        -0.0000000000 a.u.
        total same-spin energy     =        -0.2912214633 a.u.
        total opposite-spin energy =        -0.8865249164 a.u.

 Total  RIMP2   correlation energy =        -1.1777463797 a.u.
        RIMP2         total energy =      -630.5966637414 a.u.

 RI-MP2 Energy Time:  CPU 11.05 s  wall 11.08 s
 
 --------------------------------------------------------------
 
                    Orbital Energies (a.u.)
 --------------------------------------------------------------
 
 Alpha MOs
 -- Occupied --
-91.9786 -11.2819 -11.2517 -11.2473 -11.2269 -11.2262 -11.2185  -8.9783
 -6.6593  -6.6587  -6.6582  -1.1613  -1.0552  -0.9984  -0.9398  -0.8831
 -0.7427  -0.7213  -0.6490  -0.5894  -0.5740  -0.5676  -0.5584  -0.5437
 -0.5084  -0.4869  -0.4674  -0.4516  -0.3368  -0.2930
 -- Virtual --
  0.1053   0.1452   0.1518   0.1756   0.1827   0.1897   0.2071   0.2234
  0.2351   0.2424   0.2525   0.2626   0.2943   0.3234   0.3432   0.3558
  0.3827   0.3912   0.4018   0.4158   0.4391   0.4523   0.4703   0.4872
  0.4998   0.5106   0.5157   0.5337   0.5421   0.5546   0.5662   0.5880
  0.5999   0.6110   0.6126   0.6221   0.6375   0.6425   0.6430   0.6496
  0.6527   0.6623   0.6791   0.7071   0.7310   0.7444   0.7566   0.7852
  0.7978   0.8262   0.8391   0.8585   0.8743   0.8880   0.9008   0.9294
  0.9375   0.9635   1.0054   1.0172   1.0295   1.0589   1.0637   1.0706
  1.0798   1.1019   1.1153   1.1591   1.1634   1.1709   1.1883   1.2146
  1.2280   1.2302   1.2553   1.2587   1.2707   1.2789   1.3244   1.3271
  1.3500   1.3788   1.3995   1.4029   1.4214   1.4369   1.4586   1.4830
  1.4990   1.5022   1.5258   1.5282   1.5502   1.5571   1.5661   1.5800
  1.6025   1.6225   1.6668   1.6763   1.6899   1.6972   1.7167   1.7429
  1.7596   1.7822   1.8165   1.8306   1.8737   1.9126   1.9302   1.9644
  2.0025   2.0347   2.0990   2.1310   2.1820   2.1929   2.2266   2.2525
  2.2701   2.2831   2.3402   2.4098   2.4524   2.4829   2.5351   2.5536
  2.5679   2.6080   2.6208   2.6595   2.6722   2.6969   2.7088   2.7392
  2.7556   2.7618   2.7693   2.7870   2.8043   2.8405   2.8694   2.8827
  2.8929   2.9340   2.9527   2.9711   3.0023   3.0205   3.0419   3.0476
  3.0904   3.1129   3.1180   3.1277   3.1560   3.1622   3.1714   3.1840
  3.2229   3.2468   3.2633   3.2791   3.2920   3.3026   3.3045   3.3288
  3.3349   3.3735   3.3843   3.3928   3.4103   3.4169   3.4337   3.4402
  3.4530   3.4570   3.4829   3.4980   3.5042   3.5282   3.5467   3.5734
  3.5774   3.5920   3.5965   3.6242   3.6333   3.6428   3.6494   3.6754
  3.6900   3.6993   3.7201   3.7433   3.7646   3.7854   3.7914   3.8037
  3.8172   3.8301   3.8648   3.8720   3.8924   3.9235   3.9485   3.9650
  3.9695   3.9775   4.0101   4.0190   4.0667   4.0732   4.1043   4.1123
  4.1278   4.1457   4.1561   4.1994   4.2161   4.2260   4.2460   4.2490
  4.2821   4.2902   4.3191   4.3395   4.3457   4.3834   4.3852   4.4027
  4.4101   4.4218   4.4406   4.4615   4.4761   4.5141   4.5587   4.5807
  4.5998   4.6190   4.6353   4.6632   4.7196   4.7422   4.7492   4.7830
  4.8121   4.8345   4.8653   4.8879   4.9202   4.9498   5.0708   5.1040
  5.1174   5.1371   5.1795   5.1869   5.2220   5.2618   5.2845   5.3248
  5.3694   5.4050   5.4152   5.4410   5.4588   5.5093   5.5510   5.5627
  5.6048   5.6251   5.6361   5.6797   5.7042   5.8248   5.8348   5.8555
  5.8998   6.0506   6.0589   6.1295   6.2280   6.2494   6.2948   6.3684
  6.4605   6.4860   9.1500  11.4263  12.9160  13.8968  14.1703  14.3810
 --------------------------------------------------------------
 
          Ground-State Mulliken Net Atomic Charges

     Atom                 Charge (a.u.)
  ----------------------------------------
      1 C                     0.054589
      2 C                    -0.277439
      3 C                     0.038256
      4 H                     0.175073
      5 C                    -0.269211
      6 S                     0.000439
      7 C                    -0.273172
      8 H                     0.101248
      9 H                     0.107340
     10 H                     0.106841
     11 C                    -0.388906
     12 H                     0.142828
     13 H                     0.153025
     14 H                     0.136503
     15 H                     0.192584
  ----------------------------------------
  Sum of atomic charges =     0.000000

 -----------------------------------------------------------------
                    Cartesian Multipole Moments
 -----------------------------------------------------------------
    Charge (ESU x 10^10)
                -0.0000
    Dipole Moment (Debye)
         X       0.8716      Y      -0.4764      Z       1.8617
       Tot       2.1101
    Quadrupole Moments (Debye-Ang)
        XX     -53.7628     XY       1.0735     YY     -42.7726
        XZ      -0.2434     YZ      -0.7341     ZZ     -48.6014
    Octopole Moments (Debye-Ang^2)
       XXX     -28.9095    XXY     -29.0108    XYY      -2.7988
       YYY     -78.6730    XXZ      -2.0881    XYZ       0.5998
       YYZ      -1.8366    XZZ      -8.1114    YZZ     -24.2573
       ZZZ       0.4895
    Hexadecapole Moments (Debye-Ang^3)
      XXXX    -116.3034   XXXY     -78.5804   XXYY    -157.7398
      XYYY     -69.1937   YYYY    -778.3144   XXXZ     -22.8272
      XXYZ     -29.6525   XYYZ     -14.7643   YYYZ    -103.7455
      XXZZ    -106.2156   XYZZ     -21.2310   YYZZ    -207.5095
      XZZZ     -25.8849   YZZZ     -95.8777   ZZZZ    -483.6879
 -----------------------------------------------------------------
 Total job time:  156.48s(wall), 155.29s(cpu) 
 Sun Jul 10 10:53:31 2022

        *************************************************************
        *                                                           *
        *  Thank you very much for using Q-Chem.  Have a nice day.  *
        *                                                           *
        *************************************************************


remove work dirs ./qchem759932.0 -- ./qchem759932.-1
rm -rf ./qchem759932
