You are running Q-Chem version: 5.4.0

#
# job setting
#
local host:  exp-3-21
current dir: /expanse/lustre/scratch/theleonzhang/temp_project/Hydrogenated_Impropers_Test
input file:  Methylthiophene_Phi_10_Theta_10_Methylthiophene_Hydrogenated_Improper.qcin
output file: 
nprocs     : 0
nthreads   : 1
#
# qchem installation setting
#
QC:          /cm/shared/apps/spack/cpu/opt/spack/linux-centos8-zen2/gcc-10.2.0/qchem-5.4-akfmr7b3t57bfs6qan3padb2wnb2i7cl
QCAUX:       /cm/shared/apps/spack/cpu/opt/spack/linux-centos8-zen2/gcc-10.2.0/qchem-5.4-akfmr7b3t57bfs6qan3padb2wnb2i7cl/qcaux
QCPROG:      /cm/shared/apps/spack/cpu/opt/spack/linux-centos8-zen2/gcc-10.2.0/qchem-5.4-akfmr7b3t57bfs6qan3padb2wnb2i7cl/exe/qcprog.exe_s
QCPROG_S:    /cm/shared/apps/spack/cpu/opt/spack/linux-centos8-zen2/gcc-10.2.0/qchem-5.4-akfmr7b3t57bfs6qan3padb2wnb2i7cl/exe/qcprog.exe_s
PARALLEL:    -DSERIAL
QCMPI:       mpich
#
# qchem directory setting
#
qcrun:       qchem1380012
QCSCRATCH:   .
QCLOCALSCR:  
QCTMPDIR:    .
QCFILEPREF:  ./qchem1380012
QCSAVEDIR:   
workdirs:    ./qchem1380012
workdir0:    ./qchem1380012
partmpdirs =  
#
# parallel setting
#
QCRSH:           ssh
QCMPI:           mpich
QCMPIRUN:        /cm/shared/apps/spack/cpu/opt/spack/linux-centos8-zen2/gcc-10.2.0/qchem-5.4-akfmr7b3t57bfs6qan3padb2wnb2i7cl/bin/mpi/mpirun_qchem
QCMACHINEFILE:   ./qchem1380012/hostfile

#
# env setting
#
exported envs:   QC QCAUX QCSCRATCH QCRUNNAME QCFILEPREF QCPROG QCPROG_S GUIFILE

Running Job 1 of 1 Methylthiophene_Phi_10_Theta_10_Methylthiophene_Hydrogenated_Improper.qcin
qchem Methylthiophene_Phi_10_Theta_10_Methylthiophene_Hydrogenated_Improper.qcin_1380012.0 ./qchem1380012/ 0
/cm/shared/apps/spack/cpu/opt/spack/linux-centos8-zen2/gcc-10.2.0/qchem-5.4-akfmr7b3t57bfs6qan3padb2wnb2i7cl/exe/qcprog.exe_s Methylthiophene_Phi_10_Theta_10_Methylthiophene_Hydrogenated_Improper.qcin_1380012.0 ./qchem1380012/
                  Welcome to Q-Chem
     A Quantum Leap Into The Future Of Chemistry


 Q-Chem 5.4, Q-Chem, Inc., Pleasanton, CA (2021)

 License issued to: University of California, San Diego (site)

 E. Epifanovsky,  A. T. B. Gilbert,  Xintian Feng,  Joonho Lee,  Yuezhi Mao,  
 N. Mardirossian,  P. Pokhilko,  A. White,  M. Wormit,  M. P. Coons,  
 A. L. Dempwolff,  Zhengting Gan,  D. Hait,  P. R. Horn,  L. D. Jacobson,  
 I. Kaliman,  J. Kussmann,  A. W. Lange,  Ka Un Lao,  D. S. Levine,  Jie Liu,  
 S. C. McKenzie,  A. F. Morrison,  K. Nanda,  F. Plasser,  D. R. Rehn,  
 M. L. Vidal,  Zhi-Qiang You,  Ying Zhu,  B. Alam,  B. Albrecht,  
 A. Aldossary,  E. Alguire,  J. H. Andersen,  D. Barton,  K. Begam,  A. Behn,  
 Y. A. Bernard,  E. J. Berquist,  H. Burton,  A. Carreras,  K. Carter-Fenk,  
 R. Chakraborty,  A. D. Chien,  K. D. Closser,  V. Cofer-Shabica,  
 S. Dasgupta,  Jia Deng,  M. de Wergifosse,  M. Diedenhofen,  Hainam Do,  
 S. Ehlert,  Po-Tung Fang,  S. Fatehi,  Qingguo Feng,  J. Gayvert,  
 Qinghui Ge,  G. Gidofalvi,  M. Goldey,  J. Gomes,  C. Gonzalez-Espinoza,  
 S. Gulania,  A. Gunina,  M. W. D. Hanson-Heine,  P. H. P. Harbach,  
 A. W. Hauser,  M. F. Herbst,  M. Hernandez Vera,  M. Hodecker,  
 Z. C. Holden,  S. Houck,  Xunkun Huang,  Kerwin Hui,  B. C. Huynh,  
 M. Ivanov,  Hyunjun Ji,  Hanjie Jiang,  B. Kaduk,  S. Kaehler,  
 K. Khistyaev,  Jaehoon Kim,  P. Klunzinger,  Z. Koczor-Benda,  
 Joong Hoon Koh,  D. Kosenkov,  L. Koulias,  T. Kowalczyk,  C. M. Krauter,  
 K. Kue,  A. Kunitsa,  T. Kus,  A. Landau,  K. V. Lawler,  D. Lefrancois,  
 S. Lehtola,  Rain Li,  Yi-Pei Li,  Jiashu Liang,  M. Liebenthal,  
 Hung-Hsuan Lin,  You-Sheng Lin,  Fenglai Liu,  Kuan-Yu Liu,  
 M. Loipersberger,  A. Luenser,  A. Manjanath,  P. Manohar,  E. Mansoor,  
 S. F. Manzer,  Shan-Ping Mao,  A. V. Marenich,  T. Markovich,  S. Mason,  
 S. A. Maurer,  P. F. McLaughlin,  M. F. S. J. Menger,  J.-M. Mewes,  
 S. A. Mewes,  P. Morgante,  J. W. Mullinax,  T. S. Nguyen-Beck,  
 K. J. Oosterbaan,  G. Paran,  Alexander C. Paul,  Suranjan K. Paul,  
 F. Pavosevic,  Zheng Pei,  S. Prager,  E. I. Proynov,  E. Ramos,  B. Rana,  
 A. E. Rask,  A. Rettig,  R. M. Richard,  F. Rob,  E. Rossomme,  T. Scheele,  
 M. Scheurer,  M. Schneider,  N. Sergueev,  S. M. Sharada,  W. Skomorowski,  
 D. W. Small,  C. J. Stein,  Yu-Chuan Su,  E. J. Sundstrom,  Zhen Tao,  
 J. Thirman,  T. Tsuchimochi,  N. M. Tubman,  S. P. Veccham,  O. Vydrov,  
 J. Wenzel,  J. Witte,  A. Yamada,  Kun Yao,  S. Yeganeh,  S. R. Yost,  
 A. Zech,  Igor Ying Zhang,  Xing Zhang,  Yu Zhang,  D. Zuev,  
 A. Aspuru-Guzik,  A. T. Bell,  N. A. Besley,  K. B. Bravaya,  B. R. Brooks,  
 D. Casanova,  Jeng-Da Chai,  S. Coriani,  C. J. Cramer,  
 A. E. DePrince, III,  R. A. DiStasio Jr.,  A. Dreuw,  B. D. Dunietz,  
 T. R. Furlani,  W. A. Goddard III,  S. Grimme,  S. Hammes-Schiffer,  
 T. Head-Gordon,  W. J. Hehre,  Chao-Ping Hsu,  T.-C. Jagau,  Yousung Jung,  
 A. Klamt,  Jing Kong,  D. S. Lambrecht,  WanZhen Liang,  N. J. Mayhall,  
 C. W. McCurdy,  J. B. Neaton,  C. Ochsenfeld,  J. A. Parkhill,  R. Peverati,  
 V. A. Rassolov,  Yihan Shao,  L. V. Slipchenko,  T. Stauch,  R. P. Steele,  
 J. E. Subotnik,  A. J. W. Thom,  A. Tkatchenko,  D. G. Truhlar,  
 T. Van Voorhis,  T. A. Wesolowski,  K. B. Whaley,  H. L. Woodcock III,  
 P. M. Zimmerman,  S. Faraji,  P. M. W. Gill,  M. Head-Gordon,  
 J. M. Herbert,  A. I. Krylov

 Contributors to earlier versions of Q-Chem not listed above: 
 R. D. Adamson,  B. Austin,  R. Baer,  J. Baker,  G. J. O. Beran,  
 K. Brandhorst,  S. T. Brown,  E. F. C. Byrd,  A. K. Chakraborty,  
 G. K. L. Chan,  Chun-Min Chang,  Yunqing Chen,  C.-L. Cheng,  
 Siu Hung Chien,  D. M. Chipman,  D. L. Crittenden,  H. Dachsel,  
 R. J. Doerksen,  A. D. Dutoi,  R. G. Edgar,  J. Fosso-Tande,  
 L. Fusti-Molnar,  D. Ghosh,  A. Ghysels,  A. Golubeva-Zadorozhnaya,  
 J. Gonthier,  M. S. Gordon,  S. R. Gwaltney,  G. Hawkins,  J. E. Herr,  
 A. Heyden,  S. Hirata,  E. G. Hohenstein,  G. Kedziora,  F. J. Keil,  
 C. Kelley,  Jihan Kim,  R. A. King,  R. Z. Khaliullin,  P. P. Korambath,  
 W. Kurlancheek,  A. Laurent,  A. M. Lee,  M. S. Lee,  S. V. Levchenko,  
 Ching Yeh Lin,  D. Liotard,  E. Livshits,  R. C. Lochan,  I. Lotan,  
 L. A. Martinez-Martinez,  P. E. Maslen,  N. Nair,  D. P. O'Neill,  
 D. Neuhauser,  E. Neuscamman,  C. M. Oana,  R. Olivares-Amaya,  R. Olson,  
 T. M. Perrine,  B. Peters,  P. A. Pieniazek,  A. Prociuk,  Y. M. Rhee,  
 J. Ritchie,  M. A. Rohrdanz,  E. Rosta,  N. J. Russ,  H. F. Schaefer III,  
 M. W. Schmidt,  N. E. Schultz,  S. Sharma,  N. Shenvi,  C. D. Sherrill,  
 A. C. Simmonett,  A. Sodt,  T. Stein,  D. Stuck,  K. S. Thanthiriwatte,  
 V. Vanovschi,  L. Vogt,  Tao Wang,  A. Warshel,  M. A. Watson,  
 C. F. Williams,  Q. Wu,  X. Xu,  Jun Yang,  W. Zhang,  Yan Zhao

 Please cite Q-Chem as follows:
 Y. Shao et al., Mol. Phys. 113, 184-215 (2015)
 DOI: 10.1080/00268976.2014.952696

 Q-Chem 5.4.0 for Intel X86 EM64T Linux

 Parts of Q-Chem use Armadillo 9.800.1 (Horizon Scraper).
 http://arma.sourceforge.net/

 Q-Chem begins on Sun Jul 10 08:18:10 2022  

 Host: 
0

     Scratch files written to ./qchem1380012//
 May1621 |scratch|qcdevops|jenkins|workspace|build_RNUM    
 Processing $rem in /cm/shared/apps/spack/cpu/opt/spack/linux-centos8-zen2/gcc-10.2.0/qchem-5.4-akfmr7b3t57bfs6qan3padb2wnb2i7cl/config/preferences:
 Processing $rem in /home/theleonzhang/.qchemrc:
 Symmetry turned off for PCM/SM12/SMD calculation
 Core orbitals will be frozen

 Checking the input file for inconsistencies... 	...done.

--------------------------------------------------------------
User input:
--------------------------------------------------------------
$molecule
0 1
C	-0.112934	-0.566010	0.015309
C	0.037066	0.284490	1.114709
C	0.277366	1.647390	0.792009
H	-0.027034	-0.078710	2.151409
C	0.315766	1.864690	-0.597191
S	0.050766	0.362090	-1.471491
C	0.466266	2.718590	1.829909
H	0.392366	2.299390	2.852009
H	-0.298934	3.517890	1.741509
H	1.458766	3.207890	1.741509
C	-0.112934	-2.006710	0.015309
H	-1.176534	-2.006410	-0.172391
H	0.029366	-2.710510	-0.791391
H	-0.277434	-2.525610	0.948009
H	0.480566	2.799390	-1.146291
$end

$rem
JOBTYPE		SP
EXCHANGE	HF
CORRELATION	pRIMP2
BASIS		cc-pvtz
METHOD		rimp2
AUX_BASIS	rimp2-cc-pvtz
SOLVENT_METHOD	PCM
PURECART	11111
SYMMETRY	false
MEM_TOTAL	110000
SCF_CONVERGENCE = 6
THRESH=10
$end



$solvent
dielectric 4.90
$end
--------------------------------------------------------------
 ----------------------------------------------------------------
             Standard Nuclear Orientation (Angstroms)
    I     Atom           X                Y                Z
 ----------------------------------------------------------------
    1      C      -0.1129340000    -0.5660100000     0.0153090000
    2      C       0.0370660000     0.2844900000     1.1147090000
    3      C       0.2773660000     1.6473900000     0.7920090000
    4      H      -0.0270340000    -0.0787100000     2.1514090000
    5      C       0.3157660000     1.8646900000    -0.5971910000
    6      S       0.0507660000     0.3620900000    -1.4714910000
    7      C       0.4662660000     2.7185900000     1.8299090000
    8      H       0.3923660000     2.2993900000     2.8520090000
    9      H      -0.2989340000     3.5178900000     1.7415090000
   10      H       1.4587660000     3.2078900000     1.7415090000
   11      C      -0.1129340000    -2.0067100000     0.0153090000
   12      H      -1.1765340000    -2.0064100000    -0.1723910000
   13      H       0.0293660000    -2.7105100000    -0.7913910000
   14      H      -0.2774340000    -2.5256100000     0.9480090000
   15      H       0.4805660000     2.7993900000    -1.1462910000
 ----------------------------------------------------------------
 Nuclear Repulsion Energy =         344.43122109 hartrees
 There are       30 alpha and       30 beta electrons

 Q-Chem warning in module forms1/BasisType.C, line 2236:

 You are not using the predefined 5D/6D in this basis set.

 Requested basis set is cc-pVTZ
 There are 120 shells and 326 basis functions

 Total QAlloc Memory Limit 110000 MB
 Mega-Array Size       188 MB
 MEM_STATIC part       192 MB
 Discretize the solute cavity surface with Lebedev spheres
	Using 110 Lebedev grid points for each H atom
	Using 194 Lebedev grid points for other atoms
	Atomic van der Waals radii will be scaled by 1.20
 Remove points where switching function is < 1.0e-08
 Keep 1065 surface tesserae and discard 1173 interior tesserae
 Molecular Surface Area = 158.743 Angst**2

                       Distance Matrix (Angstroms)
             C (  1)   C (  2)   C (  3)   H (  4)   C (  5)   S (  6)
   C (  2)  1.398045
   C (  3)  2.377969  1.421047
   H (  4)  2.192661  1.100350  2.218118
   C (  5)  2.543077  2.346339  1.406617  3.383654
   S (  6)  1.760324  2.587400  2.612810  3.650447  1.758531
   C (  7)  3.796952  2.573046  1.503459  2.858600  2.577326  4.077373
   H (  8)  4.063584  2.684077  2.163777  2.514378  3.477328  4.749997
   H (  9)  4.437635  3.310687  2.175418  3.630080  2.929239  4.517160
   H ( 10)  4.437604  3.310646  2.175412  3.630063  2.929190  4.517124
   C ( 11)  1.440700  2.545737  3.756068  2.878799  3.942928  2.801533
   H ( 12)  1.800341  2.894421  4.048969  3.230700  4.170471  2.967106
   H ( 13)  2.295625  3.550113  4.643270  3.948370  4.588267  3.147041
   H ( 14)  2.176470  2.832554  4.212608  2.738283  4.691936  3.781601
   H ( 15)  3.609359  3.410797  2.263935  4.406353  1.096510  2.496180
             C (  7)   H (  8)   H (  9)   H ( 10)   C ( 11)   H ( 12)
   H (  8)  1.107194
   H (  9)  1.110057  1.787694
   H ( 10)  1.110083  1.787678  1.784828
   C ( 11)  5.094772  5.181186  5.790990  5.713323
   H ( 12)  5.388286  5.490752  5.911944  6.147906  1.080035
   H ( 13)  6.044603  6.205258  6.731740  6.594409  1.079976  1.527453
   H ( 14)  5.369588  5.230150  6.095408  6.042934  1.079929  1.527497
   H ( 15)  2.977331  4.030407  3.076240  3.076221  4.979975  5.175923
             H ( 13)   H ( 14)
   H ( 14)  1.775902
   H ( 15)  5.539723  5.772026
 
 Requested basis set is rimp2-cc-pVTZ
 There are 250 shells and 848 basis functions
 A cutoff of  1.0D-10 yielded   6163 shell pairs
 There are     45171 function pairs (     58084 Cartesian)
 Smallest overlap matrix eigenvalue = 8.89E-05

 Scale SEOQF with 1.000000e-01/1.000000e-01/1.000000e-01

 Standard Electronic Orientation quadrupole field applied
 Nucleus-field energy     =     0.0000000023 hartrees
 Guess from superposition of atomic densities
 Warning:  Energy on first SCF cycle will be non-variational
 SAD guess density has 60.000000 electrons

 -----------------------------------------------------------------------
  General SCF calculation program by
  Eric Jon Sundstrom, Paul Horn, Yuezhi Mao, Dmitri Zuev, Alec White,
  David Stuck, Shaama M.S., Shane Yost, Joonho Lee, David Small,
  Daniel Levine, Susi Lehtola, Hugh Burton, Evgeny Epifanovsky,
  Bang C. Huynh
 -----------------------------------------------------------------------
 Hartree-Fock
 A restricted SCF calculation will be
 performed using DIIS
 SCF converges when DIIS error is below 1.0e-06
 ---------------------------------------
  Cycle       Energy         DIIS error
 ---------------------------------------
    1    -632.0958155179      2.91e-02  
    2    -629.3404125858      1.95e-03  
    3    -629.4108426741      7.06e-04  
    4    -629.4185982479      3.63e-04  
    5    -629.4208967844      6.28e-05  
    6    -629.4210320701      2.60e-05  
    7    -629.4210647830      1.12e-05  
    8    -629.4210737096      5.13e-06  
    9    -629.4210751661      1.68e-06  
   10    -629.4210753497      6.72e-07  Convergence criterion met
 ---------------------------------------
 SCF time:   CPU 143.67s  wall 144.00s 

************** Final PCM Free Energy Summary **************
 G_electrostatic  =      -0.00587279 hartree =      -3.68523321 kcal/mol
 G_cavitation     =       0.00000000 hartree =       0.00000000 kcal/mol
 G_dispersion     =       0.00000000 hartree =       0.00000000 kcal/mol
 G_repulsion      =       0.00000000 hartree =       0.00000000 kcal/mol
 --------------------------------------------------
 Non-electrostatic Free Energy =       0.00000000 hartree =       0.00000000 kcal/mol
 Total                         =      -0.00587279 hartree =      -3.68523321 kcal/mol
 --------------------------------------------------
 SCF Energy (H0 + V/2)                       =    -629.42107535 
 Solute Internal Energy (H0)                 =    -629.41520256 
 Total Free Energy (H0 + V/2 + non-elec)     =    -629.42107535 hartree
                                             = -394967.68602892 kcal/mol
***********************************************************

 SCF   energy in the final basis set =     -629.4210753497
 Total energy in the final basis set =     -629.4210753497


 --------------------------------------------------------------
  Generalized many-body perturbation theory program
  by Joonho Lee, Fazle Rob, Xintian Feng, Evgeny Epifanovsky

 No regularization used 
 (reg. param. = 0.0000e+00)
  (P|Q)^-1/2 Time:  CPU 0.48 s  wall 0.48 s

 In RI-MP2 calculation: 
 # of frozen core orbitals: 11

 Components of the RIMP2 correlation energy:
        aaaa    correlation energy =        -0.1452331550 a.u.
        abab    correlation energy =        -0.8856299550 a.u.
        bbbb    correlation energy =        -0.1452331550 a.u.
        non-Brillouin singles      =        -0.0000000000 a.u.
        total same-spin energy     =        -0.2904663100 a.u.
        total opposite-spin energy =        -0.8856299550 a.u.

 Total  RIMP2   correlation energy =        -1.1760962650 a.u.
        RIMP2         total energy =      -630.5971716147 a.u.

 RI-MP2 Energy Time:  CPU 11.03 s  wall 11.06 s
 
 --------------------------------------------------------------
 
                    Orbital Energies (a.u.)
 --------------------------------------------------------------
 
 Alpha MOs
 -- Occupied --
-91.9775 -11.2843 -11.2498 -11.2469 -11.2264 -11.2244 -11.2210  -8.9774
 -6.6585  -6.6579  -6.6573  -1.1601  -1.0559  -0.9971  -0.9426  -0.8827
 -0.7443  -0.7186  -0.6472  -0.5892  -0.5744  -0.5709  -0.5512  -0.5462
 -0.5087  -0.4931  -0.4629  -0.4563  -0.3384  -0.2885
 -- Virtual --
  0.1123   0.1447   0.1474   0.1750   0.1887   0.1979   0.2107   0.2173
  0.2197   0.2392   0.2467   0.2578   0.2968   0.3253   0.3421   0.3549
  0.3871   0.3894   0.4067   0.4220   0.4329   0.4601   0.4700   0.4914
  0.5012   0.5129   0.5240   0.5316   0.5373   0.5566   0.5780   0.5896
  0.5999   0.6065   0.6180   0.6247   0.6352   0.6385   0.6444   0.6475
  0.6589   0.6732   0.6905   0.6967   0.7203   0.7505   0.7769   0.7958
  0.8123   0.8293   0.8404   0.8575   0.8789   0.8897   0.8953   0.9337
  0.9515   0.9789   0.9904   1.0254   1.0352   1.0547   1.0665   1.0781
  1.0921   1.0965   1.1017   1.1085   1.1299   1.1676   1.1741   1.2054
  1.2336   1.2437   1.2561   1.2704   1.2779   1.2924   1.3121   1.3469
  1.3637   1.3813   1.3938   1.4143   1.4319   1.4385   1.4495   1.4831
  1.5045   1.5054   1.5260   1.5351   1.5425   1.5679   1.5687   1.5988
  1.6065   1.6277   1.6485   1.6752   1.6922   1.7004   1.7318   1.7472
  1.7733   1.7889   1.8088   1.8379   1.8888   1.9072   1.9469   1.9511
  2.0196   2.0644   2.0905   2.1268   2.1797   2.2006   2.2274   2.2617
  2.2810   2.2945   2.3483   2.4189   2.4549   2.4827   2.4878   2.5311
  2.5639   2.6010   2.6462   2.6617   2.6741   2.6926   2.7182   2.7350
  2.7486   2.7690   2.7750   2.7972   2.8147   2.8360   2.8556   2.8629
  2.9174   2.9244   2.9566   2.9690   3.0128   3.0310   3.0493   3.0784
  3.0910   3.1140   3.1262   3.1284   3.1514   3.1572   3.1783   3.1863
  3.2195   3.2323   3.2666   3.2839   3.2957   3.3117   3.3185   3.3263
  3.3441   3.3519   3.3812   3.3913   3.3972   3.4062   3.4283   3.4360
  3.4547   3.4634   3.4834   3.4873   3.5019   3.5047   3.5302   3.5387
  3.5784   3.6014   3.6103   3.6223   3.6307   3.6473   3.6667   3.6797
  3.6883   3.6983   3.7148   3.7490   3.7560   3.7819   3.7925   3.8047
  3.8163   3.8478   3.8697   3.8807   3.9113   3.9336   3.9369   3.9507
  3.9787   3.9830   4.0221   4.0300   4.0383   4.0484   4.1037   4.1150
  4.1321   4.1433   4.1736   4.2128   4.2217   4.2350   4.2457   4.2681
  4.2920   4.3050   4.3131   4.3375   4.3519   4.3603   4.3910   4.4026
  4.4208   4.4313   4.4428   4.4596   4.4740   4.5170   4.5433   4.5561
  4.5989   4.6214   4.6325   4.6825   4.7009   4.7409   4.7489   4.7784
  4.8209   4.8332   4.8677   4.8930   4.9151   4.9691   5.0880   5.1125
  5.1226   5.1408   5.1529   5.1988   5.2136   5.2661   5.2865   5.3275
  5.3729   5.4077   5.4169   5.4382   5.4708   5.5134   5.5506   5.5660
  5.5808   5.6183   5.6225   5.6582   5.6996   5.8126   5.8194   5.8499
  5.9470   5.9814   6.1322   6.2040   6.2276   6.2520   6.3168   6.4245
  6.4318   6.5592   9.2193  11.3658  12.9391  13.8289  14.1790  14.5501
 --------------------------------------------------------------
 
          Ground-State Mulliken Net Atomic Charges

     Atom                 Charge (a.u.)
  ----------------------------------------
      1 C                     0.051740
      2 C                    -0.292063
      3 C                     0.044061
      4 H                     0.178969
      5 C                    -0.275378
      6 S                    -0.004941
      7 C                    -0.273687
      8 H                     0.101222
      9 H                     0.107219
     10 H                     0.107241
     11 C                    -0.378239
     12 H                     0.138339
     13 H                     0.162102
     14 H                     0.140255
     15 H                     0.193160
  ----------------------------------------
  Sum of atomic charges =     0.000000

 -----------------------------------------------------------------
                    Cartesian Multipole Moments
 -----------------------------------------------------------------
    Charge (ESU x 10^10)
                -0.0000
    Dipole Moment (Debye)
         X      -0.5310      Y      -0.6781      Z       1.2993
       Tot       1.5588
    Quadrupole Moments (Debye-Ang)
        XX     -54.0032     XY       3.0310     YY     -42.0035
        XZ      -0.0595     YZ       0.7281     ZZ     -48.5766
    Octopole Moments (Debye-Ang^2)
       XXX     -18.4976    XXY     -30.2670    XYY      -5.5789
       YYY     -81.9353    XXZ      -1.9788    XYZ      -0.0396
       YYZ      -5.4817    XZZ      -5.0987    YZZ     -25.7868
       ZZZ       1.0584
    Hexadecapole Moments (Debye-Ang^3)
      XXXX     -96.4753   XXXY     -59.3707   XXYY    -161.5781
      XYYY     -43.2539   YYYY    -793.3669   XXXZ     -15.4207
      XXYZ     -30.2198   XYYZ      -8.5093   YYYZ     -97.3477
      XXZZ    -104.7489   XYZZ     -15.6902   YYZZ    -207.5468
      XZZZ     -18.0404   YZZZ    -100.2558   ZZZZ    -484.2878
 -----------------------------------------------------------------
 Total job time:  158.15s(wall), 155.05s(cpu) 
 Sun Jul 10 08:20:48 2022

        *************************************************************
        *                                                           *
        *  Thank you very much for using Q-Chem.  Have a nice day.  *
        *                                                           *
        *************************************************************


remove work dirs ./qchem1380012.0 -- ./qchem1380012.-1
rm -rf ./qchem1380012
