You are running Q-Chem version: 5.4.0

#
# job setting
#
local host:  exp-5-33
current dir: /expanse/lustre/scratch/theleonzhang/temp_project/Hydrogenated_Impropers_Test
input file:  Methylthiophene_Phi_5_Theta_270_Methylthiophene_Hydrogenated_Improper_Alternate.qcin
output file: 
nprocs     : 0
nthreads   : 1
#
# qchem installation setting
#
QC:          /cm/shared/apps/spack/cpu/opt/spack/linux-centos8-zen2/gcc-10.2.0/qchem-5.4-akfmr7b3t57bfs6qan3padb2wnb2i7cl
QCAUX:       /cm/shared/apps/spack/cpu/opt/spack/linux-centos8-zen2/gcc-10.2.0/qchem-5.4-akfmr7b3t57bfs6qan3padb2wnb2i7cl/qcaux
QCPROG:      /cm/shared/apps/spack/cpu/opt/spack/linux-centos8-zen2/gcc-10.2.0/qchem-5.4-akfmr7b3t57bfs6qan3padb2wnb2i7cl/exe/qcprog.exe_s
QCPROG_S:    /cm/shared/apps/spack/cpu/opt/spack/linux-centos8-zen2/gcc-10.2.0/qchem-5.4-akfmr7b3t57bfs6qan3padb2wnb2i7cl/exe/qcprog.exe_s
PARALLEL:    -DSERIAL
QCMPI:       mpich
#
# qchem directory setting
#
qcrun:       qchem2194743
QCSCRATCH:   .
QCLOCALSCR:  
QCTMPDIR:    .
QCFILEPREF:  ./qchem2194743
QCSAVEDIR:   
workdirs:    ./qchem2194743
workdir0:    ./qchem2194743
partmpdirs =  
#
# parallel setting
#
QCRSH:           ssh
QCMPI:           mpich
QCMPIRUN:        /cm/shared/apps/spack/cpu/opt/spack/linux-centos8-zen2/gcc-10.2.0/qchem-5.4-akfmr7b3t57bfs6qan3padb2wnb2i7cl/bin/mpi/mpirun_qchem
QCMACHINEFILE:   ./qchem2194743/hostfile

#
# env setting
#
exported envs:   QC QCAUX QCSCRATCH QCRUNNAME QCFILEPREF QCPROG QCPROG_S GUIFILE

Running Job 1 of 1 Methylthiophene_Phi_5_Theta_270_Methylthiophene_Hydrogenated_Improper_Alternate.qcin
qchem Methylthiophene_Phi_5_Theta_270_Methylthiophene_Hydrogenated_Improper_Alternate.qcin_2194743.0 ./qchem2194743/ 0
/cm/shared/apps/spack/cpu/opt/spack/linux-centos8-zen2/gcc-10.2.0/qchem-5.4-akfmr7b3t57bfs6qan3padb2wnb2i7cl/exe/qcprog.exe_s Methylthiophene_Phi_5_Theta_270_Methylthiophene_Hydrogenated_Improper_Alternate.qcin_2194743.0 ./qchem2194743/
                  Welcome to Q-Chem
     A Quantum Leap Into The Future Of Chemistry


 Q-Chem 5.4, Q-Chem, Inc., Pleasanton, CA (2021)

 License issued to: University of California, San Diego (site)

 E. Epifanovsky,  A. T. B. Gilbert,  Xintian Feng,  Joonho Lee,  Yuezhi Mao,  
 N. Mardirossian,  P. Pokhilko,  A. White,  M. Wormit,  M. P. Coons,  
 A. L. Dempwolff,  Zhengting Gan,  D. Hait,  P. R. Horn,  L. D. Jacobson,  
 I. Kaliman,  J. Kussmann,  A. W. Lange,  Ka Un Lao,  D. S. Levine,  Jie Liu,  
 S. C. McKenzie,  A. F. Morrison,  K. Nanda,  F. Plasser,  D. R. Rehn,  
 M. L. Vidal,  Zhi-Qiang You,  Ying Zhu,  B. Alam,  B. Albrecht,  
 A. Aldossary,  E. Alguire,  J. H. Andersen,  D. Barton,  K. Begam,  A. Behn,  
 Y. A. Bernard,  E. J. Berquist,  H. Burton,  A. Carreras,  K. Carter-Fenk,  
 R. Chakraborty,  A. D. Chien,  K. D. Closser,  V. Cofer-Shabica,  
 S. Dasgupta,  Jia Deng,  M. de Wergifosse,  M. Diedenhofen,  Hainam Do,  
 S. Ehlert,  Po-Tung Fang,  S. Fatehi,  Qingguo Feng,  J. Gayvert,  
 Qinghui Ge,  G. Gidofalvi,  M. Goldey,  J. Gomes,  C. Gonzalez-Espinoza,  
 S. Gulania,  A. Gunina,  M. W. D. Hanson-Heine,  P. H. P. Harbach,  
 A. W. Hauser,  M. F. Herbst,  M. Hernandez Vera,  M. Hodecker,  
 Z. C. Holden,  S. Houck,  Xunkun Huang,  Kerwin Hui,  B. C. Huynh,  
 M. Ivanov,  Hyunjun Ji,  Hanjie Jiang,  B. Kaduk,  S. Kaehler,  
 K. Khistyaev,  Jaehoon Kim,  P. Klunzinger,  Z. Koczor-Benda,  
 Joong Hoon Koh,  D. Kosenkov,  L. Koulias,  T. Kowalczyk,  C. M. Krauter,  
 K. Kue,  A. Kunitsa,  T. Kus,  A. Landau,  K. V. Lawler,  D. Lefrancois,  
 S. Lehtola,  Rain Li,  Yi-Pei Li,  Jiashu Liang,  M. Liebenthal,  
 Hung-Hsuan Lin,  You-Sheng Lin,  Fenglai Liu,  Kuan-Yu Liu,  
 M. Loipersberger,  A. Luenser,  A. Manjanath,  P. Manohar,  E. Mansoor,  
 S. F. Manzer,  Shan-Ping Mao,  A. V. Marenich,  T. Markovich,  S. Mason,  
 S. A. Maurer,  P. F. McLaughlin,  M. F. S. J. Menger,  J.-M. Mewes,  
 S. A. Mewes,  P. Morgante,  J. W. Mullinax,  T. S. Nguyen-Beck,  
 K. J. Oosterbaan,  G. Paran,  Alexander C. Paul,  Suranjan K. Paul,  
 F. Pavosevic,  Zheng Pei,  S. Prager,  E. I. Proynov,  E. Ramos,  B. Rana,  
 A. E. Rask,  A. Rettig,  R. M. Richard,  F. Rob,  E. Rossomme,  T. Scheele,  
 M. Scheurer,  M. Schneider,  N. Sergueev,  S. M. Sharada,  W. Skomorowski,  
 D. W. Small,  C. J. Stein,  Yu-Chuan Su,  E. J. Sundstrom,  Zhen Tao,  
 J. Thirman,  T. Tsuchimochi,  N. M. Tubman,  S. P. Veccham,  O. Vydrov,  
 J. Wenzel,  J. Witte,  A. Yamada,  Kun Yao,  S. Yeganeh,  S. R. Yost,  
 A. Zech,  Igor Ying Zhang,  Xing Zhang,  Yu Zhang,  D. Zuev,  
 A. Aspuru-Guzik,  A. T. Bell,  N. A. Besley,  K. B. Bravaya,  B. R. Brooks,  
 D. Casanova,  Jeng-Da Chai,  S. Coriani,  C. J. Cramer,  
 A. E. DePrince, III,  R. A. DiStasio Jr.,  A. Dreuw,  B. D. Dunietz,  
 T. R. Furlani,  W. A. Goddard III,  S. Grimme,  S. Hammes-Schiffer,  
 T. Head-Gordon,  W. J. Hehre,  Chao-Ping Hsu,  T.-C. Jagau,  Yousung Jung,  
 A. Klamt,  Jing Kong,  D. S. Lambrecht,  WanZhen Liang,  N. J. Mayhall,  
 C. W. McCurdy,  J. B. Neaton,  C. Ochsenfeld,  J. A. Parkhill,  R. Peverati,  
 V. A. Rassolov,  Yihan Shao,  L. V. Slipchenko,  T. Stauch,  R. P. Steele,  
 J. E. Subotnik,  A. J. W. Thom,  A. Tkatchenko,  D. G. Truhlar,  
 T. Van Voorhis,  T. A. Wesolowski,  K. B. Whaley,  H. L. Woodcock III,  
 P. M. Zimmerman,  S. Faraji,  P. M. W. Gill,  M. Head-Gordon,  
 J. M. Herbert,  A. I. Krylov

 Contributors to earlier versions of Q-Chem not listed above: 
 R. D. Adamson,  B. Austin,  R. Baer,  J. Baker,  G. J. O. Beran,  
 K. Brandhorst,  S. T. Brown,  E. F. C. Byrd,  A. K. Chakraborty,  
 G. K. L. Chan,  Chun-Min Chang,  Yunqing Chen,  C.-L. Cheng,  
 Siu Hung Chien,  D. M. Chipman,  D. L. Crittenden,  H. Dachsel,  
 R. J. Doerksen,  A. D. Dutoi,  R. G. Edgar,  J. Fosso-Tande,  
 L. Fusti-Molnar,  D. Ghosh,  A. Ghysels,  A. Golubeva-Zadorozhnaya,  
 J. Gonthier,  M. S. Gordon,  S. R. Gwaltney,  G. Hawkins,  J. E. Herr,  
 A. Heyden,  S. Hirata,  E. G. Hohenstein,  G. Kedziora,  F. J. Keil,  
 C. Kelley,  Jihan Kim,  R. A. King,  R. Z. Khaliullin,  P. P. Korambath,  
 W. Kurlancheek,  A. Laurent,  A. M. Lee,  M. S. Lee,  S. V. Levchenko,  
 Ching Yeh Lin,  D. Liotard,  E. Livshits,  R. C. Lochan,  I. Lotan,  
 L. A. Martinez-Martinez,  P. E. Maslen,  N. Nair,  D. P. O'Neill,  
 D. Neuhauser,  E. Neuscamman,  C. M. Oana,  R. Olivares-Amaya,  R. Olson,  
 T. M. Perrine,  B. Peters,  P. A. Pieniazek,  A. Prociuk,  Y. M. Rhee,  
 J. Ritchie,  M. A. Rohrdanz,  E. Rosta,  N. J. Russ,  H. F. Schaefer III,  
 M. W. Schmidt,  N. E. Schultz,  S. Sharma,  N. Shenvi,  C. D. Sherrill,  
 A. C. Simmonett,  A. Sodt,  T. Stein,  D. Stuck,  K. S. Thanthiriwatte,  
 V. Vanovschi,  L. Vogt,  Tao Wang,  A. Warshel,  M. A. Watson,  
 C. F. Williams,  Q. Wu,  X. Xu,  Jun Yang,  W. Zhang,  Yan Zhao

 Please cite Q-Chem as follows:
 Y. Shao et al., Mol. Phys. 113, 184-215 (2015)
 DOI: 10.1080/00268976.2014.952696

 Q-Chem 5.4.0 for Intel X86 EM64T Linux

 Parts of Q-Chem use Armadillo 9.800.1 (Horizon Scraper).
 http://arma.sourceforge.net/

 Q-Chem begins on Sun Jul 10 10:56:46 2022  

 Host: 
0

     Scratch files written to ./qchem2194743//
 May1621 |scratch|qcdevops|jenkins|workspace|build_RNUM    
 Processing $rem in /cm/shared/apps/spack/cpu/opt/spack/linux-centos8-zen2/gcc-10.2.0/qchem-5.4-akfmr7b3t57bfs6qan3padb2wnb2i7cl/config/preferences:
 Processing $rem in /home/theleonzhang/.qchemrc:
 Symmetry turned off for PCM/SM12/SMD calculation
 Core orbitals will be frozen

 Checking the input file for inconsistencies... 	...done.

--------------------------------------------------------------
User input:
--------------------------------------------------------------
$molecule
0 1
C	-0.059720	-0.573727	0.019884
C	0.015580	0.286573	1.119284
C	0.136180	1.665273	0.796584
H	-0.016520	-0.080827	2.155984
C	0.155480	1.885073	-0.592616
S	0.022480	0.365073	-1.466916
C	0.231080	2.748873	1.834484
H	0.193980	2.324773	2.856584
H	-0.600920	3.478373	1.746084
H	1.177080	3.322873	1.746084
C	-0.059720	-2.014427	0.019884
H	-0.059620	-2.014627	-1.060116
H	-0.878920	-2.718227	0.019784
H	0.887380	-2.533327	0.019884
H	0.238180	2.830673	-1.141716
$end

$rem
JOBTYPE		SP
EXCHANGE	HF
CORRELATION	pRIMP2
BASIS		cc-pvtz
METHOD		rimp2
AUX_BASIS	rimp2-cc-pvtz
SOLVENT_METHOD	PCM
PURECART	11111
SYMMETRY	false
MEM_TOTAL	110000
SCF_CONVERGENCE = 6
THRESH=10
$end



$solvent
dielectric 4.90
$end
--------------------------------------------------------------
 ----------------------------------------------------------------
             Standard Nuclear Orientation (Angstroms)
    I     Atom           X                Y                Z
 ----------------------------------------------------------------
    1      C      -0.0597200000    -0.5737270000     0.0198840000
    2      C       0.0155800000     0.2865730000     1.1192840000
    3      C       0.1361800000     1.6652730000     0.7965840000
    4      H      -0.0165200000    -0.0808270000     2.1559840000
    5      C       0.1554800000     1.8850730000    -0.5926160000
    6      S       0.0224800000     0.3650730000    -1.4669160000
    7      C       0.2310800000     2.7488730000     1.8344840000
    8      H       0.1939800000     2.3247730000     2.8565840000
    9      H      -0.6009200000     3.4783730000     1.7460840000
   10      H       1.1770800000     3.3228730000     1.7460840000
   11      C      -0.0597200000    -2.0144270000     0.0198840000
   12      H      -0.0596200000    -2.0146270000    -1.0601160000
   13      H      -0.8789200000    -2.7182270000     0.0197840000
   14      H       0.8873800000    -2.5333270000     0.0198840000
   15      H       0.2381800000     2.8306730000    -1.1417160000
 ----------------------------------------------------------------
 Nuclear Repulsion Energy =         344.75843272 hartrees
 There are       30 alpha and       30 beta electrons

 Q-Chem warning in module forms1/BasisType.C, line 2236:

 You are not using the predefined 5D/6D in this basis set.

 Requested basis set is cc-pVTZ
 There are 120 shells and 326 basis functions

 Total QAlloc Memory Limit 110000 MB
 Mega-Array Size       188 MB
 MEM_STATIC part       192 MB
 Discretize the solute cavity surface with Lebedev spheres
	Using 110 Lebedev grid points for each H atom
	Using 194 Lebedev grid points for other atoms
	Atomic van der Waals radii will be scaled by 1.20
 Remove points where switching function is < 1.0e-08
 Keep 1062 surface tesserae and discard 1176 interior tesserae
 Molecular Surface Area = 158.507 Angst**2

                       Distance Matrix (Angstroms)
             C (  1)   C (  2)   C (  3)   H (  4)   C (  5)   S (  6)
   C (  2)  1.398022
   C (  3)  2.377974  1.421089
   H (  4)  2.192656  1.100345  2.218141
   C (  5)  2.543062  2.346354  1.406613  3.383659
   S (  6)  1.760306  2.587400  2.612830  3.650445  1.758548
   C (  7)  3.796974  2.573106  1.503473  2.858648  2.577340  4.077408
   H (  8)  4.063562  2.684082  2.163765  2.514371  3.477326  4.749999
   H (  9)  4.437587  3.310670  2.175362  3.630075  2.929209  4.517149
   H ( 10)  4.437672  3.310752  2.175468  3.630134  2.929241  4.517195
   C ( 11)  1.440700  2.551265  3.765877  2.881597  3.953172  2.807018
   H ( 12)  1.800720  3.170325  4.126419  3.752964  3.933508  2.415616
   H ( 13)  2.295641  3.322327  4.566062  3.501851  4.757666  3.539709
   H ( 14)  2.176472  3.149691  4.335413  3.375606  4.520298  3.370363
   H ( 15)  3.609432  3.410882  2.263972  4.406419  1.096590  2.496290
             C (  7)   H (  8)   H (  9)   H ( 10)   C ( 11)   H ( 12)
   H (  8)  1.107215
   H (  9)  1.110049  1.787699
   H ( 10)  1.110048  1.787708  1.784787
   C ( 11)  5.105523  5.190365  5.783037  5.744233
   H ( 12)  5.581590  5.851089  6.191996  6.155736  1.080000
   H ( 13)  5.866380  5.884760  6.438575  6.610759  1.080011  1.527249
   H ( 14)  5.623623  5.668228  6.429257  6.112182  1.079933  1.527173
   H ( 15)  2.977332  4.030421  3.076198  3.076229  4.991298  4.855129
             H ( 13)   H ( 14)
   H ( 14)  1.775951
   H ( 15)  5.778173  5.526597
 
 Requested basis set is rimp2-cc-pVTZ
 There are 250 shells and 848 basis functions
 A cutoff of  1.0D-10 yielded   6167 shell pairs
 There are     45151 function pairs (     58064 Cartesian)
 Smallest overlap matrix eigenvalue = 1.03E-04

 Scale SEOQF with 1.000000e+00/1.000000e-01/1.000000e-01

 Standard Electronic Orientation quadrupole field applied
 Nucleus-field energy     =     0.0000000038 hartrees
 Guess from superposition of atomic densities
 Warning:  Energy on first SCF cycle will be non-variational
 SAD guess density has 60.000000 electrons

 -----------------------------------------------------------------------
  General SCF calculation program by
  Eric Jon Sundstrom, Paul Horn, Yuezhi Mao, Dmitri Zuev, Alec White,
  David Stuck, Shaama M.S., Shane Yost, Joonho Lee, David Small,
  Daniel Levine, Susi Lehtola, Hugh Burton, Evgeny Epifanovsky,
  Bang C. Huynh
 -----------------------------------------------------------------------
 Hartree-Fock
 A restricted SCF calculation will be
 performed using DIIS
 SCF converges when DIIS error is below 1.0e-06
 ---------------------------------------
  Cycle       Energy         DIIS error
 ---------------------------------------
    1    -632.1106373436      2.92e-02  
    2    -629.3399104165      1.94e-03  
    3    -629.4104526651      6.81e-04  
    4    -629.4180111841      3.40e-04  
    5    -629.4200910895      6.41e-05  
    6    -629.4202268503      2.62e-05  
    7    -629.4202611524      1.16e-05  
    8    -629.4202706120      4.94e-06  
    9    -629.4202720166      1.76e-06  
   10    -629.4202721938      5.43e-07  Convergence criterion met
 ---------------------------------------
 SCF time:   CPU 144.23s  wall 145.00s 

************** Final PCM Free Energy Summary **************
 G_electrostatic  =      -0.00505198 hartree =      -3.17016277 kcal/mol
 G_cavitation     =       0.00000000 hartree =       0.00000000 kcal/mol
 G_dispersion     =       0.00000000 hartree =       0.00000000 kcal/mol
 G_repulsion      =       0.00000000 hartree =       0.00000000 kcal/mol
 --------------------------------------------------
 Non-electrostatic Free Energy =       0.00000000 hartree =       0.00000000 kcal/mol
 Total                         =      -0.00505198 hartree =      -3.17016277 kcal/mol
 --------------------------------------------------
 SCF Energy (H0 + V/2)                       =    -629.42027219 
 Solute Internal Energy (H0)                 =    -629.41522022 
 Total Free Energy (H0 + V/2 + non-elec)     =    -629.42027219 hartree
                                             = -394967.18204098 kcal/mol
***********************************************************

 SCF   energy in the final basis set =     -629.4202721938
 Total energy in the final basis set =     -629.4202721938


 --------------------------------------------------------------
  Generalized many-body perturbation theory program
  by Joonho Lee, Fazle Rob, Xintian Feng, Evgeny Epifanovsky

 No regularization used 
 (reg. param. = 0.0000e+00)
  (P|Q)^-1/2 Time:  CPU 0.51 s  wall 0.51 s

 In RI-MP2 calculation: 
 # of frozen core orbitals: 11

 Components of the RIMP2 correlation energy:
        aaaa    correlation energy =        -0.1455899381 a.u.
        abab    correlation energy =        -0.8867387164 a.u.
        bbbb    correlation energy =        -0.1455899381 a.u.
        non-Brillouin singles      =        -0.0000000000 a.u.
        total same-spin energy     =        -0.2911798762 a.u.
        total opposite-spin energy =        -0.8867387164 a.u.

 Total  RIMP2   correlation energy =        -1.1779185926 a.u.
        RIMP2         total energy =      -630.5981907863 a.u.

 RI-MP2 Energy Time:  CPU 12.65 s  wall 12.67 s
 
 --------------------------------------------------------------
 
                    Orbital Energies (a.u.)
 --------------------------------------------------------------
 
 Alpha MOs
 -- Occupied --
-91.9807 -11.2748 -11.2579 -11.2471 -11.2291 -11.2268 -11.2160  -8.9806
 -6.6615  -6.6609  -6.6603  -1.1610  -1.0551  -0.9953  -0.9464  -0.8816
 -0.7480  -0.7186  -0.6481  -0.5916  -0.5753  -0.5657  -0.5537  -0.5474
 -0.5088  -0.4860  -0.4650  -0.4438  -0.3383  -0.3041
 -- Virtual --
  0.1039   0.1415   0.1501   0.1735   0.1885   0.1927   0.1934   0.2334
  0.2396   0.2435   0.2453   0.2850   0.2879   0.3164   0.3426   0.3508
  0.3719   0.3995   0.4051   0.4102   0.4469   0.4710   0.4720   0.4790
  0.4914   0.5066   0.5243   0.5269   0.5358   0.5711   0.5762   0.5959
  0.6017   0.6075   0.6144   0.6275   0.6327   0.6417   0.6448   0.6541
  0.6576   0.6634   0.6875   0.6949   0.7351   0.7539   0.7668   0.7747
  0.7989   0.8062   0.8419   0.8549   0.8680   0.8970   0.8998   0.9348
  0.9627   0.9681   0.9778   1.0109   1.0368   1.0498   1.0641   1.0725
  1.0829   1.0850   1.1205   1.1285   1.1572   1.1686   1.1904   1.2108
  1.2231   1.2475   1.2557   1.2594   1.2704   1.3053   1.3087   1.3148
  1.3604   1.3786   1.4000   1.4110   1.4344   1.4514   1.4563   1.4797
  1.4847   1.5033   1.5165   1.5419   1.5479   1.5600   1.5716   1.5863
  1.6209   1.6307   1.6342   1.6637   1.6874   1.6931   1.7090   1.7529
  1.7705   1.7851   1.8063   1.8435   1.8884   1.9031   1.9377   1.9499
  1.9946   2.0519   2.1015   2.1205   2.1841   2.1983   2.2212   2.2365
  2.2586   2.2966   2.3599   2.4189   2.4551   2.5120   2.5283   2.5635
  2.5741   2.6072   2.6202   2.6536   2.6732   2.6793   2.7184   2.7316
  2.7469   2.7589   2.7901   2.8037   2.8188   2.8385   2.8516   2.8806
  2.9043   2.9113   2.9304   2.9603   2.9921   3.0125   3.0492   3.0772
  3.0921   3.1139   3.1352   3.1504   3.1624   3.1742   3.1858   3.2004
  3.2199   3.2404   3.2552   3.2704   3.2869   3.3042   3.3125   3.3289
  3.3455   3.3479   3.3728   3.3820   3.3910   3.4159   3.4193   3.4373
  3.4399   3.4555   3.4834   3.4973   3.5068   3.5173   3.5316   3.5643
  3.5911   3.6081   3.6104   3.6193   3.6329   3.6381   3.6614   3.6782
  3.7051   3.7125   3.7399   3.7585   3.7675   3.7763   3.7901   3.7999
  3.8170   3.8264   3.8810   3.8975   3.9054   3.9253   3.9352   3.9506
  3.9642   3.9810   4.0079   4.0251   4.0333   4.0473   4.0991   4.1043
  4.1216   4.1446   4.1626   4.1755   4.1844   4.2144   4.2247   4.2464
  4.2826   4.2864   4.2990   4.3379   4.3435   4.3511   4.3951   4.4023
  4.4110   4.4273   4.4430   4.4518   4.4593   4.4940   4.5401   4.5653
  4.5882   4.6292   4.6463   4.6797   4.7049   4.7471   4.7480   4.7866
  4.7952   4.8172   4.8544   4.9051   4.9382   5.0057   5.0798   5.0930
  5.1126   5.1528   5.1616   5.1946   5.2537   5.2859   5.2978   5.3045
  5.3641   5.4016   5.4196   5.4404   5.4671   5.4950   5.5495   5.5657
  5.5950   5.6225   5.6327   5.7012   5.7457   5.8227   5.8431   5.8802
  5.9051   5.9551   6.0321   6.1354   6.2271   6.2511   6.3115   6.3546
  6.4225   6.5100   9.1719  11.4157  12.9123  13.9140  14.1851  14.5245
 --------------------------------------------------------------
 
          Ground-State Mulliken Net Atomic Charges

     Atom                 Charge (a.u.)
  ----------------------------------------
      1 C                     0.058781
      2 C                    -0.264280
      3 C                     0.040784
      4 H                     0.179961
      5 C                    -0.260562
      6 S                    -0.002798
      7 C                    -0.273236
      8 H                     0.101905
      9 H                     0.106820
     10 H                     0.106866
     11 C                    -0.371352
     12 H                     0.112340
     13 H                     0.144661
     14 H                     0.124664
     15 H                     0.195445
  ----------------------------------------
  Sum of atomic charges =     0.000000

 -----------------------------------------------------------------
                    Cartesian Multipole Moments
 -----------------------------------------------------------------
    Charge (ESU x 10^10)
                -0.0000
    Dipole Moment (Debye)
         X       0.1532      Y       0.0370      Z       0.8469
       Tot       0.8615
    Quadrupole Moments (Debye-Ang)
        XX     -53.6262     XY       0.8756     YY     -42.2591
        XZ       0.0624     YZ       1.4920     ZZ     -48.8402
    Octopole Moments (Debye-Ang^2)
       XXX      -9.6079    XXY     -32.6085    XYY      -2.1126
       YYY     -78.1066    XXZ      -1.6156    XYZ      -0.3933
       YYZ      -7.5104    XZZ      -2.7047    YZZ     -23.0592
       ZZZ       2.2483
    Hexadecapole Moments (Debye-Ang^3)
      XXXX     -82.6677   XXXY     -28.0211   XXYY    -156.1582
      XYYY     -19.8024   YYYY    -810.2518   XXXZ      -8.0319
      XXYZ     -31.4200   XYYZ      -3.5823   YYYZ    -101.6731
      XXZZ    -102.4778   XYZZ      -7.5088   YYZZ    -217.6919
      XZZZ      -9.0523   YZZZ    -104.8928   ZZZZ    -481.0801
 -----------------------------------------------------------------
 Total job time:  158.30s(wall), 157.25s(cpu) 
 Sun Jul 10 10:59:25 2022

        *************************************************************
        *                                                           *
        *  Thank you very much for using Q-Chem.  Have a nice day.  *
        *                                                           *
        *************************************************************


remove work dirs ./qchem2194743.0 -- ./qchem2194743.-1
rm -rf ./qchem2194743
