You are running Q-Chem version: 5.4.0

#
# job setting
#
local host:  exp-13-53
current dir: /expanse/lustre/scratch/theleonzhang/temp_project/Hydrogenated_Impropers_Test
input file:  Methylthiophene_Phi_15_Theta_160_Methylthiophene_Hydrogenated_Improper_Alternate.qcin
output file: 
nprocs     : 0
nthreads   : 1
#
# qchem installation setting
#
QC:          /cm/shared/apps/spack/cpu/opt/spack/linux-centos8-zen2/gcc-10.2.0/qchem-5.4-akfmr7b3t57bfs6qan3padb2wnb2i7cl
QCAUX:       /cm/shared/apps/spack/cpu/opt/spack/linux-centos8-zen2/gcc-10.2.0/qchem-5.4-akfmr7b3t57bfs6qan3padb2wnb2i7cl/qcaux
QCPROG:      /cm/shared/apps/spack/cpu/opt/spack/linux-centos8-zen2/gcc-10.2.0/qchem-5.4-akfmr7b3t57bfs6qan3padb2wnb2i7cl/exe/qcprog.exe_s
QCPROG_S:    /cm/shared/apps/spack/cpu/opt/spack/linux-centos8-zen2/gcc-10.2.0/qchem-5.4-akfmr7b3t57bfs6qan3padb2wnb2i7cl/exe/qcprog.exe_s
PARALLEL:    -DSERIAL
QCMPI:       mpich
#
# qchem directory setting
#
qcrun:       qchem757032
QCSCRATCH:   .
QCLOCALSCR:  
QCTMPDIR:    .
QCFILEPREF:  ./qchem757032
QCSAVEDIR:   
workdirs:    ./qchem757032
workdir0:    ./qchem757032
partmpdirs =  
#
# parallel setting
#
QCRSH:           ssh
QCMPI:           mpich
QCMPIRUN:        /cm/shared/apps/spack/cpu/opt/spack/linux-centos8-zen2/gcc-10.2.0/qchem-5.4-akfmr7b3t57bfs6qan3padb2wnb2i7cl/bin/mpi/mpirun_qchem
QCMACHINEFILE:   ./qchem757032/hostfile

#
# env setting
#
exported envs:   QC QCAUX QCSCRATCH QCRUNNAME QCFILEPREF QCPROG QCPROG_S GUIFILE

Running Job 1 of 1 Methylthiophene_Phi_15_Theta_160_Methylthiophene_Hydrogenated_Improper_Alternate.qcin
qchem Methylthiophene_Phi_15_Theta_160_Methylthiophene_Hydrogenated_Improper_Alternate.qcin_757032.0 ./qchem757032/ 0
/cm/shared/apps/spack/cpu/opt/spack/linux-centos8-zen2/gcc-10.2.0/qchem-5.4-akfmr7b3t57bfs6qan3padb2wnb2i7cl/exe/qcprog.exe_s Methylthiophene_Phi_15_Theta_160_Methylthiophene_Hydrogenated_Improper_Alternate.qcin_757032.0 ./qchem757032/
                  Welcome to Q-Chem
     A Quantum Leap Into The Future Of Chemistry


 Q-Chem 5.4, Q-Chem, Inc., Pleasanton, CA (2021)

 License issued to: University of California, San Diego (site)

 E. Epifanovsky,  A. T. B. Gilbert,  Xintian Feng,  Joonho Lee,  Yuezhi Mao,  
 N. Mardirossian,  P. Pokhilko,  A. White,  M. Wormit,  M. P. Coons,  
 A. L. Dempwolff,  Zhengting Gan,  D. Hait,  P. R. Horn,  L. D. Jacobson,  
 I. Kaliman,  J. Kussmann,  A. W. Lange,  Ka Un Lao,  D. S. Levine,  Jie Liu,  
 S. C. McKenzie,  A. F. Morrison,  K. Nanda,  F. Plasser,  D. R. Rehn,  
 M. L. Vidal,  Zhi-Qiang You,  Ying Zhu,  B. Alam,  B. Albrecht,  
 A. Aldossary,  E. Alguire,  J. H. Andersen,  D. Barton,  K. Begam,  A. Behn,  
 Y. A. Bernard,  E. J. Berquist,  H. Burton,  A. Carreras,  K. Carter-Fenk,  
 R. Chakraborty,  A. D. Chien,  K. D. Closser,  V. Cofer-Shabica,  
 S. Dasgupta,  Jia Deng,  M. de Wergifosse,  M. Diedenhofen,  Hainam Do,  
 S. Ehlert,  Po-Tung Fang,  S. Fatehi,  Qingguo Feng,  J. Gayvert,  
 Qinghui Ge,  G. Gidofalvi,  M. Goldey,  J. Gomes,  C. Gonzalez-Espinoza,  
 S. Gulania,  A. Gunina,  M. W. D. Hanson-Heine,  P. H. P. Harbach,  
 A. W. Hauser,  M. F. Herbst,  M. Hernandez Vera,  M. Hodecker,  
 Z. C. Holden,  S. Houck,  Xunkun Huang,  Kerwin Hui,  B. C. Huynh,  
 M. Ivanov,  Hyunjun Ji,  Hanjie Jiang,  B. Kaduk,  S. Kaehler,  
 K. Khistyaev,  Jaehoon Kim,  P. Klunzinger,  Z. Koczor-Benda,  
 Joong Hoon Koh,  D. Kosenkov,  L. Koulias,  T. Kowalczyk,  C. M. Krauter,  
 K. Kue,  A. Kunitsa,  T. Kus,  A. Landau,  K. V. Lawler,  D. Lefrancois,  
 S. Lehtola,  Rain Li,  Yi-Pei Li,  Jiashu Liang,  M. Liebenthal,  
 Hung-Hsuan Lin,  You-Sheng Lin,  Fenglai Liu,  Kuan-Yu Liu,  
 M. Loipersberger,  A. Luenser,  A. Manjanath,  P. Manohar,  E. Mansoor,  
 S. F. Manzer,  Shan-Ping Mao,  A. V. Marenich,  T. Markovich,  S. Mason,  
 S. A. Maurer,  P. F. McLaughlin,  M. F. S. J. Menger,  J.-M. Mewes,  
 S. A. Mewes,  P. Morgante,  J. W. Mullinax,  T. S. Nguyen-Beck,  
 K. J. Oosterbaan,  G. Paran,  Alexander C. Paul,  Suranjan K. Paul,  
 F. Pavosevic,  Zheng Pei,  S. Prager,  E. I. Proynov,  E. Ramos,  B. Rana,  
 A. E. Rask,  A. Rettig,  R. M. Richard,  F. Rob,  E. Rossomme,  T. Scheele,  
 M. Scheurer,  M. Schneider,  N. Sergueev,  S. M. Sharada,  W. Skomorowski,  
 D. W. Small,  C. J. Stein,  Yu-Chuan Su,  E. J. Sundstrom,  Zhen Tao,  
 J. Thirman,  T. Tsuchimochi,  N. M. Tubman,  S. P. Veccham,  O. Vydrov,  
 J. Wenzel,  J. Witte,  A. Yamada,  Kun Yao,  S. Yeganeh,  S. R. Yost,  
 A. Zech,  Igor Ying Zhang,  Xing Zhang,  Yu Zhang,  D. Zuev,  
 A. Aspuru-Guzik,  A. T. Bell,  N. A. Besley,  K. B. Bravaya,  B. R. Brooks,  
 D. Casanova,  Jeng-Da Chai,  S. Coriani,  C. J. Cramer,  
 A. E. DePrince, III,  R. A. DiStasio Jr.,  A. Dreuw,  B. D. Dunietz,  
 T. R. Furlani,  W. A. Goddard III,  S. Grimme,  S. Hammes-Schiffer,  
 T. Head-Gordon,  W. J. Hehre,  Chao-Ping Hsu,  T.-C. Jagau,  Yousung Jung,  
 A. Klamt,  Jing Kong,  D. S. Lambrecht,  WanZhen Liang,  N. J. Mayhall,  
 C. W. McCurdy,  J. B. Neaton,  C. Ochsenfeld,  J. A. Parkhill,  R. Peverati,  
 V. A. Rassolov,  Yihan Shao,  L. V. Slipchenko,  T. Stauch,  R. P. Steele,  
 J. E. Subotnik,  A. J. W. Thom,  A. Tkatchenko,  D. G. Truhlar,  
 T. Van Voorhis,  T. A. Wesolowski,  K. B. Whaley,  H. L. Woodcock III,  
 P. M. Zimmerman,  S. Faraji,  P. M. W. Gill,  M. Head-Gordon,  
 J. M. Herbert,  A. I. Krylov

 Contributors to earlier versions of Q-Chem not listed above: 
 R. D. Adamson,  B. Austin,  R. Baer,  J. Baker,  G. J. O. Beran,  
 K. Brandhorst,  S. T. Brown,  E. F. C. Byrd,  A. K. Chakraborty,  
 G. K. L. Chan,  Chun-Min Chang,  Yunqing Chen,  C.-L. Cheng,  
 Siu Hung Chien,  D. M. Chipman,  D. L. Crittenden,  H. Dachsel,  
 R. J. Doerksen,  A. D. Dutoi,  R. G. Edgar,  J. Fosso-Tande,  
 L. Fusti-Molnar,  D. Ghosh,  A. Ghysels,  A. Golubeva-Zadorozhnaya,  
 J. Gonthier,  M. S. Gordon,  S. R. Gwaltney,  G. Hawkins,  J. E. Herr,  
 A. Heyden,  S. Hirata,  E. G. Hohenstein,  G. Kedziora,  F. J. Keil,  
 C. Kelley,  Jihan Kim,  R. A. King,  R. Z. Khaliullin,  P. P. Korambath,  
 W. Kurlancheek,  A. Laurent,  A. M. Lee,  M. S. Lee,  S. V. Levchenko,  
 Ching Yeh Lin,  D. Liotard,  E. Livshits,  R. C. Lochan,  I. Lotan,  
 L. A. Martinez-Martinez,  P. E. Maslen,  N. Nair,  D. P. O'Neill,  
 D. Neuhauser,  E. Neuscamman,  C. M. Oana,  R. Olivares-Amaya,  R. Olson,  
 T. M. Perrine,  B. Peters,  P. A. Pieniazek,  A. Prociuk,  Y. M. Rhee,  
 J. Ritchie,  M. A. Rohrdanz,  E. Rosta,  N. J. Russ,  H. F. Schaefer III,  
 M. W. Schmidt,  N. E. Schultz,  S. Sharma,  N. Shenvi,  C. D. Sherrill,  
 A. C. Simmonett,  A. Sodt,  T. Stein,  D. Stuck,  K. S. Thanthiriwatte,  
 V. Vanovschi,  L. Vogt,  Tao Wang,  A. Warshel,  M. A. Watson,  
 C. F. Williams,  Q. Wu,  X. Xu,  Jun Yang,  W. Zhang,  Yan Zhao

 Please cite Q-Chem as follows:
 Y. Shao et al., Mol. Phys. 113, 184-215 (2015)
 DOI: 10.1080/00268976.2014.952696

 Q-Chem 5.4.0 for Intel X86 EM64T Linux

 Parts of Q-Chem use Armadillo 9.800.1 (Horizon Scraper).
 http://arma.sourceforge.net/

 Q-Chem begins on Sun Jul 10 10:35:15 2022  

 Host: 
0

     Scratch files written to ./qchem757032//
 May1621 |scratch|qcdevops|jenkins|workspace|build_RNUM    
 Processing $rem in /cm/shared/apps/spack/cpu/opt/spack/linux-centos8-zen2/gcc-10.2.0/qchem-5.4-akfmr7b3t57bfs6qan3padb2wnb2i7cl/config/preferences:
 Processing $rem in /home/theleonzhang/.qchemrc:
 Symmetry turned off for PCM/SM12/SMD calculation
 Core orbitals will be frozen

 Checking the input file for inconsistencies... 	...done.

--------------------------------------------------------------
User input:
--------------------------------------------------------------
$molecule
0 1
C	-0.179937	-0.553191	0.017231
C	0.043563	0.281009	1.116631
C	0.401763	1.617709	0.793931
H	-0.051837	-0.075291	2.153331
C	0.458963	1.830809	-0.595269
S	0.063963	0.357109	-1.469569
C	0.683363	2.668409	1.831831
H	0.573163	2.257309	2.853931
H	-0.009237	3.531409	1.743431
H	1.714663	3.069409	1.743431
C	-0.179937	-1.993891	0.017231
H	0.834963	-1.993591	-0.352069
H	0.100163	-2.697691	0.787031
H	-0.503837	-2.512791	-0.872769
H	0.704663	2.747709	-1.144369
$end

$rem
JOBTYPE		SP
EXCHANGE	HF
CORRELATION	pRIMP2
BASIS		cc-pvtz
METHOD		rimp2
AUX_BASIS	rimp2-cc-pvtz
SOLVENT_METHOD	PCM
PURECART	11111
SYMMETRY	false
MEM_TOTAL	110000
SCF_CONVERGENCE = 6
THRESH=10
$end



$solvent
dielectric 4.90
$end
--------------------------------------------------------------
 ----------------------------------------------------------------
             Standard Nuclear Orientation (Angstroms)
    I     Atom           X                Y                Z
 ----------------------------------------------------------------
    1      C      -0.1799370000    -0.5531910000     0.0172310000
    2      C       0.0435630000     0.2810090000     1.1166310000
    3      C       0.4017630000     1.6177090000     0.7939310000
    4      H      -0.0518370000    -0.0752910000     2.1533310000
    5      C       0.4589630000     1.8308090000    -0.5952690000
    6      S       0.0639630000     0.3571090000    -1.4695690000
    7      C       0.6833630000     2.6684090000     1.8318310000
    8      H       0.5731630000     2.2573090000     2.8539310000
    9      H      -0.0092370000     3.5314090000     1.7434310000
   10      H       1.7146630000     3.0694090000     1.7434310000
   11      C      -0.1799370000    -1.9938910000     0.0172310000
   12      H       0.8349630000    -1.9935910000    -0.3520690000
   13      H       0.1001630000    -2.6976910000     0.7870310000
   14      H      -0.5038370000    -2.5127910000    -0.8727690000
   15      H       0.7046630000     2.7477090000    -1.1443690000
 ----------------------------------------------------------------
 Nuclear Repulsion Energy =         345.11518111 hartrees
 There are       30 alpha and       30 beta electrons

 Q-Chem warning in module forms1/BasisType.C, line 2236:

 You are not using the predefined 5D/6D in this basis set.

 Requested basis set is cc-pVTZ
 There are 120 shells and 326 basis functions

 Total QAlloc Memory Limit 110000 MB
 Mega-Array Size       188 MB
 MEM_STATIC part       192 MB
 Discretize the solute cavity surface with Lebedev spheres
	Using 110 Lebedev grid points for each H atom
	Using 194 Lebedev grid points for other atoms
	Atomic van der Waals radii will be scaled by 1.20
 Remove points where switching function is < 1.0e-08
 Keep 1057 surface tesserae and discard 1181 interior tesserae
 Molecular Surface Area = 158.483 Angst**2

                       Distance Matrix (Angstroms)
             C (  1)   C (  2)   C (  3)   H (  4)   C (  5)   S (  6)
   C (  2)  1.398042
   C (  3)  2.377908  1.420989
   H (  4)  2.192652  1.100363  2.218101
   C (  5)  2.542991  2.346282  1.406613  3.383628
   S (  6)  1.760315  2.587400  2.612787  3.650450  1.758470
   C (  7)  3.796942  2.573040  1.503498  2.858631  2.577352  4.077377
   H (  8)  4.063611  2.684110  2.163808  2.514456  3.477344  4.750021
   H (  9)  4.437664  3.310705  2.175481  3.630168  2.929295  4.517179
   H ( 10)  4.437624  3.310684  2.175475  3.630107  2.929237  4.517162
   C ( 11)  1.440700  2.536494  3.739691  2.874084  3.925771  2.792358
   H ( 12)  1.800321  2.820851  3.813459  3.277700  3.850527  2.714597
   H ( 13)  2.295632  2.997414  4.325932  2.960889  4.748347  3.798073
   H ( 14)  2.176475  3.473137  4.545221  3.911904  4.457673  2.985782
   H ( 15)  3.609401  3.410833  2.263991  4.406410  1.096624  2.496241
             C (  7)   H (  8)   H (  9)   H ( 10)   C ( 11)   H ( 12)
   H (  8)  1.107175
   H (  9)  1.110080  1.787661
   H ( 10)  1.110043  1.787663  1.784734
   C ( 11)  5.076918  5.165920  5.791187  5.675058
   H ( 12)  5.150402  5.330772  5.969038  5.549681  1.080002
   H ( 13)  5.497887  5.389604  6.303043  6.064714  1.079992  1.527494
   H ( 14)  5.963987  6.148339  6.604656  6.551885  1.079939  1.527443
   H ( 15)  2.977332  4.030408  3.076236  3.076196  4.961311  4.808809
             H ( 13)   H ( 14)
   H ( 14)  1.775934
   H ( 15)  5.809312  5.404359
 
 Requested basis set is rimp2-cc-pVTZ
 There are 250 shells and 848 basis functions
 A cutoff of  1.0D-10 yielded   6180 shell pairs
 There are     45250 function pairs (     58183 Cartesian)
 Smallest overlap matrix eigenvalue = 9.73E-05

 Scale SEOQF with 1.000000e-01/1.000000e-01/1.000000e-01

 Standard Electronic Orientation quadrupole field applied
 Nucleus-field energy     =     0.0000000021 hartrees
 Guess from superposition of atomic densities
 Warning:  Energy on first SCF cycle will be non-variational
 SAD guess density has 60.000000 electrons

 -----------------------------------------------------------------------
  General SCF calculation program by
  Eric Jon Sundstrom, Paul Horn, Yuezhi Mao, Dmitri Zuev, Alec White,
  David Stuck, Shaama M.S., Shane Yost, Joonho Lee, David Small,
  Daniel Levine, Susi Lehtola, Hugh Burton, Evgeny Epifanovsky,
  Bang C. Huynh
 -----------------------------------------------------------------------
 Hartree-Fock
 A restricted SCF calculation will be
 performed using DIIS
 SCF converges when DIIS error is below 1.0e-06
 ---------------------------------------
  Cycle       Energy         DIIS error
 ---------------------------------------
    1    -632.1057715947      2.92e-02  
    2    -629.3403183366      1.95e-03  
    3    -629.4109648329      7.14e-04  
    4    -629.4188165985      3.65e-04  
    5    -629.4211436482      6.28e-05  
    6    -629.4212804475      2.64e-05  
    7    -629.4213144324      1.14e-05  
    8    -629.4213239387      5.24e-06  
    9    -629.4213254567      1.73e-06  
   10    -629.4213256557      7.18e-07  Convergence criterion met
 ---------------------------------------
 SCF time:   CPU 143.61s  wall 144.00s 

************** Final PCM Free Energy Summary **************
 G_electrostatic  =      -0.00563069 hartree =      -3.53330979 kcal/mol
 G_cavitation     =       0.00000000 hartree =       0.00000000 kcal/mol
 G_dispersion     =       0.00000000 hartree =       0.00000000 kcal/mol
 G_repulsion      =       0.00000000 hartree =       0.00000000 kcal/mol
 --------------------------------------------------
 Non-electrostatic Free Energy =       0.00000000 hartree =       0.00000000 kcal/mol
 Total                         =      -0.00563069 hartree =      -3.53330979 kcal/mol
 --------------------------------------------------
 SCF Energy (H0 + V/2)                       =    -629.42132566 
 Solute Internal Energy (H0)                 =    -629.41569497 
 Total Free Energy (H0 + V/2 + non-elec)     =    -629.42132566 hartree
                                             = -394967.84309836 kcal/mol
***********************************************************

 SCF   energy in the final basis set =     -629.4213256557
 Total energy in the final basis set =     -629.4213256557


 --------------------------------------------------------------
  Generalized many-body perturbation theory program
  by Joonho Lee, Fazle Rob, Xintian Feng, Evgeny Epifanovsky

 No regularization used 
 (reg. param. = 0.0000e+00)
  (P|Q)^-1/2 Time:  CPU 0.48 s  wall 0.48 s

 In RI-MP2 calculation: 
 # of frozen core orbitals: 11

 Components of the RIMP2 correlation energy:
        aaaa    correlation energy =        -0.1451057669 a.u.
        abab    correlation energy =        -0.8854297078 a.u.
        bbbb    correlation energy =        -0.1451057669 a.u.
        non-Brillouin singles      =        -0.0000000000 a.u.
        total same-spin energy     =        -0.2902115337 a.u.
        total opposite-spin energy =        -0.8854297078 a.u.

 Total  RIMP2   correlation energy =        -1.1756412415 a.u.
        RIMP2         total energy =      -630.5969668973 a.u.

 RI-MP2 Energy Time:  CPU 11.04 s  wall 11.07 s
 
 --------------------------------------------------------------
 
                    Orbital Energies (a.u.)
 --------------------------------------------------------------
 
 Alpha MOs
 -- Occupied --
-91.9779 -11.2838 -11.2511 -11.2469 -11.2265 -11.2239 -11.2218  -8.9779
 -6.6590  -6.6584  -6.6578  -1.1615  -1.0567  -0.9961  -0.9433  -0.8817
 -0.7452  -0.7186  -0.6494  -0.5870  -0.5776  -0.5652  -0.5526  -0.5476
 -0.5073  -0.4940  -0.4656  -0.4557  -0.3396  -0.2897
 -- Virtual --
  0.1081   0.1445   0.1499   0.1750   0.1883   0.1985   0.2056   0.2163
  0.2247   0.2458   0.2478   0.2585   0.2932   0.3317   0.3468   0.3495
  0.3832   0.3943   0.4016   0.4266   0.4318   0.4634   0.4685   0.4831
  0.4963   0.5038   0.5203   0.5307   0.5442   0.5580   0.5697   0.5906
  0.5979   0.6046   0.6160   0.6193   0.6315   0.6389   0.6443   0.6485
  0.6548   0.6709   0.6897   0.6978   0.7250   0.7450   0.7737   0.8003
  0.8073   0.8284   0.8387   0.8472   0.8688   0.8891   0.9012   0.9299
  0.9531   0.9650   0.9977   1.0165   1.0312   1.0533   1.0705   1.0736
  1.0789   1.0967   1.1104   1.1269   1.1544   1.1717   1.1781   1.2084
  1.2279   1.2421   1.2553   1.2734   1.2758   1.2866   1.3086   1.3245
  1.3758   1.3843   1.3990   1.4093   1.4354   1.4405   1.4538   1.4828
  1.4841   1.5052   1.5201   1.5304   1.5429   1.5504   1.5543   1.5818
  1.6080   1.6329   1.6367   1.6745   1.6851   1.7016   1.7157   1.7487
  1.7567   1.7866   1.8034   1.8309   1.8963   1.9180   1.9352   1.9640
  2.0263   2.0423   2.1006   2.1312   2.1838   2.1843   2.2317   2.2552
  2.2816   2.2890   2.3493   2.4202   2.4463   2.4686   2.4896   2.5430
  2.5588   2.5934   2.6410   2.6547   2.6660   2.6986   2.7207   2.7312
  2.7480   2.7617   2.7732   2.8043   2.8326   2.8494   2.8642   2.8743
  2.9011   2.9264   2.9609   2.9745   2.9999   3.0313   3.0531   3.0685
  3.0812   3.1027   3.1148   3.1415   3.1576   3.1702   3.1760   3.1902
  3.2015   3.2412   3.2516   3.2709   3.2936   3.3022   3.3151   3.3303
  3.3350   3.3584   3.3804   3.3969   3.4151   3.4257   3.4303   3.4511
  3.4585   3.4610   3.4661   3.4967   3.5129   3.5160   3.5387   3.5450
  3.5827   3.5945   3.6031   3.6216   3.6327   3.6451   3.6527   3.6844
  3.6856   3.7123   3.7236   3.7380   3.7586   3.7675   3.7889   3.8002
  3.8099   3.8308   3.8582   3.8842   3.9066   3.9196   3.9534   3.9680
  3.9728   3.9950   3.9998   4.0360   4.0459   4.0585   4.0789   4.1041
  4.1131   4.1449   4.1691   4.1972   4.2205   4.2281   4.2552   4.2735
  4.2895   4.2969   4.3205   4.3376   4.3539   4.3687   4.3915   4.4024
  4.4109   4.4299   4.4417   4.4662   4.4779   4.5295   4.5394   4.5750
  4.5977   4.6178   4.6402   4.6613   4.7163   4.7336   4.7596   4.7655
  4.8021   4.8269   4.8642   4.8716   4.9078   4.9362   5.0641   5.0897
  5.1167   5.1488   5.1715   5.1986   5.2130   5.2615   5.2888   5.3336
  5.3739   5.4070   5.4133   5.4424   5.4837   5.5294   5.5557   5.5656
  5.6001   5.6054   5.6216   5.6539   5.6990   5.8067   5.8338   5.8556
  5.9323   6.0184   6.0671   6.1494   6.2282   6.2546   6.2957   6.3806
  6.4419   6.6144   9.2052  11.3610  12.9109  13.7714  14.1809  14.6127
 --------------------------------------------------------------
 
          Ground-State Mulliken Net Atomic Charges

     Atom                 Charge (a.u.)
  ----------------------------------------
      1 C                     0.064939
      2 C                    -0.327019
      3 C                     0.062630
      4 H                     0.177337
      5 C                    -0.278450
      6 S                    -0.001397
      7 C                    -0.272408
      8 H                     0.101450
      9 H                     0.107432
     10 H                     0.107215
     11 C                    -0.373862
     12 H                     0.142143
     13 H                     0.162571
     14 H                     0.134274
     15 H                     0.193145
  ----------------------------------------
  Sum of atomic charges =     0.000000

 -----------------------------------------------------------------
                    Cartesian Multipole Moments
 -----------------------------------------------------------------
    Charge (ESU x 10^10)
                -0.0000
    Dipole Moment (Debye)
         X       0.9832      Y      -0.6349      Z       1.1855
       Tot       1.6659
    Quadrupole Moments (Debye-Ang)
        XX     -54.0002     XY       0.8036     YY     -42.3566
        XZ       0.3237     YZ       0.6465     ZZ     -48.6453
    Octopole Moments (Debye-Ang^2)
       XXX     -28.7944    XXY     -28.4035    XYY      -1.7065
       YYY     -80.1754    XXZ      -2.0653    XYZ      -1.5585
       YYZ      -4.3155    XZZ      -8.2220    YZZ     -24.7739
       ZZZ       1.2632
    Hexadecapole Moments (Debye-Ang^3)
      XXXX    -115.5734   XXXY     -78.4755   XXYY    -159.7426
      XYYY     -72.3847   YYYY    -774.2983   XXXZ     -24.2518
      XXYZ     -30.2224   XYYZ      -8.4218   YYYZ    -102.0968
      XXZZ    -106.9144   XYZZ     -20.6305   YYZZ    -205.2980
      XZZZ     -26.5495   YZZZ     -99.0667   ZZZZ    -484.2930
 -----------------------------------------------------------------
 Total job time:  156.64s(wall), 155.01s(cpu) 
 Sun Jul 10 10:37:51 2022

        *************************************************************
        *                                                           *
        *  Thank you very much for using Q-Chem.  Have a nice day.  *
        *                                                           *
        *************************************************************


remove work dirs ./qchem757032.0 -- ./qchem757032.-1
rm -rf ./qchem757032
