You are running Q-Chem version: 5.4.0

#
# job setting
#
local host:  exp-4-43
current dir: /expanse/lustre/scratch/theleonzhang/temp_project/Hydrogenated_Impropers_Test
input file:  Methylthiophene_Phi_60_Theta_170_Methylthiophene_Hydrogenated_Improper_Alternate.qcin
output file: 
nprocs     : 0
nthreads   : 1
#
# qchem installation setting
#
QC:          /cm/shared/apps/spack/cpu/opt/spack/linux-centos8-zen2/gcc-10.2.0/qchem-5.4-akfmr7b3t57bfs6qan3padb2wnb2i7cl
QCAUX:       /cm/shared/apps/spack/cpu/opt/spack/linux-centos8-zen2/gcc-10.2.0/qchem-5.4-akfmr7b3t57bfs6qan3padb2wnb2i7cl/qcaux
QCPROG:      /cm/shared/apps/spack/cpu/opt/spack/linux-centos8-zen2/gcc-10.2.0/qchem-5.4-akfmr7b3t57bfs6qan3padb2wnb2i7cl/exe/qcprog.exe_s
QCPROG_S:    /cm/shared/apps/spack/cpu/opt/spack/linux-centos8-zen2/gcc-10.2.0/qchem-5.4-akfmr7b3t57bfs6qan3padb2wnb2i7cl/exe/qcprog.exe_s
PARALLEL:    -DSERIAL
QCMPI:       mpich
#
# qchem directory setting
#
qcrun:       qchem2273867
QCSCRATCH:   .
QCLOCALSCR:  
QCTMPDIR:    .
QCFILEPREF:  ./qchem2273867
QCSAVEDIR:   
workdirs:    ./qchem2273867
workdir0:    ./qchem2273867
partmpdirs =  
#
# parallel setting
#
QCRSH:           ssh
QCMPI:           mpich
QCMPIRUN:        /cm/shared/apps/spack/cpu/opt/spack/linux-centos8-zen2/gcc-10.2.0/qchem-5.4-akfmr7b3t57bfs6qan3padb2wnb2i7cl/bin/mpi/mpirun_qchem
QCMACHINEFILE:   ./qchem2273867/hostfile

#
# env setting
#
exported envs:   QC QCAUX QCSCRATCH QCRUNNAME QCFILEPREF QCPROG QCPROG_S GUIFILE

Running Job 1 of 1 Methylthiophene_Phi_60_Theta_170_Methylthiophene_Hydrogenated_Improper_Alternate.qcin
qchem Methylthiophene_Phi_60_Theta_170_Methylthiophene_Hydrogenated_Improper_Alternate.qcin_2273867.0 ./qchem2273867/ 0
/cm/shared/apps/spack/cpu/opt/spack/linux-centos8-zen2/gcc-10.2.0/qchem-5.4-akfmr7b3t57bfs6qan3padb2wnb2i7cl/exe/qcprog.exe_s Methylthiophene_Phi_60_Theta_170_Methylthiophene_Hydrogenated_Improper_Alternate.qcin_2273867.0 ./qchem2273867/
                  Welcome to Q-Chem
     A Quantum Leap Into The Future Of Chemistry


 Q-Chem 5.4, Q-Chem, Inc., Pleasanton, CA (2021)

 License issued to: University of California, San Diego (site)

 E. Epifanovsky,  A. T. B. Gilbert,  Xintian Feng,  Joonho Lee,  Yuezhi Mao,  
 N. Mardirossian,  P. Pokhilko,  A. White,  M. Wormit,  M. P. Coons,  
 A. L. Dempwolff,  Zhengting Gan,  D. Hait,  P. R. Horn,  L. D. Jacobson,  
 I. Kaliman,  J. Kussmann,  A. W. Lange,  Ka Un Lao,  D. S. Levine,  Jie Liu,  
 S. C. McKenzie,  A. F. Morrison,  K. Nanda,  F. Plasser,  D. R. Rehn,  
 M. L. Vidal,  Zhi-Qiang You,  Ying Zhu,  B. Alam,  B. Albrecht,  
 A. Aldossary,  E. Alguire,  J. H. Andersen,  D. Barton,  K. Begam,  A. Behn,  
 Y. A. Bernard,  E. J. Berquist,  H. Burton,  A. Carreras,  K. Carter-Fenk,  
 R. Chakraborty,  A. D. Chien,  K. D. Closser,  V. Cofer-Shabica,  
 S. Dasgupta,  Jia Deng,  M. de Wergifosse,  M. Diedenhofen,  Hainam Do,  
 S. Ehlert,  Po-Tung Fang,  S. Fatehi,  Qingguo Feng,  J. Gayvert,  
 Qinghui Ge,  G. Gidofalvi,  M. Goldey,  J. Gomes,  C. Gonzalez-Espinoza,  
 S. Gulania,  A. Gunina,  M. W. D. Hanson-Heine,  P. H. P. Harbach,  
 A. W. Hauser,  M. F. Herbst,  M. Hernandez Vera,  M. Hodecker,  
 Z. C. Holden,  S. Houck,  Xunkun Huang,  Kerwin Hui,  B. C. Huynh,  
 M. Ivanov,  Hyunjun Ji,  Hanjie Jiang,  B. Kaduk,  S. Kaehler,  
 K. Khistyaev,  Jaehoon Kim,  P. Klunzinger,  Z. Koczor-Benda,  
 Joong Hoon Koh,  D. Kosenkov,  L. Koulias,  T. Kowalczyk,  C. M. Krauter,  
 K. Kue,  A. Kunitsa,  T. Kus,  A. Landau,  K. V. Lawler,  D. Lefrancois,  
 S. Lehtola,  Rain Li,  Yi-Pei Li,  Jiashu Liang,  M. Liebenthal,  
 Hung-Hsuan Lin,  You-Sheng Lin,  Fenglai Liu,  Kuan-Yu Liu,  
 M. Loipersberger,  A. Luenser,  A. Manjanath,  P. Manohar,  E. Mansoor,  
 S. F. Manzer,  Shan-Ping Mao,  A. V. Marenich,  T. Markovich,  S. Mason,  
 S. A. Maurer,  P. F. McLaughlin,  M. F. S. J. Menger,  J.-M. Mewes,  
 S. A. Mewes,  P. Morgante,  J. W. Mullinax,  T. S. Nguyen-Beck,  
 K. J. Oosterbaan,  G. Paran,  Alexander C. Paul,  Suranjan K. Paul,  
 F. Pavosevic,  Zheng Pei,  S. Prager,  E. I. Proynov,  E. Ramos,  B. Rana,  
 A. E. Rask,  A. Rettig,  R. M. Richard,  F. Rob,  E. Rossomme,  T. Scheele,  
 M. Scheurer,  M. Schneider,  N. Sergueev,  S. M. Sharada,  W. Skomorowski,  
 D. W. Small,  C. J. Stein,  Yu-Chuan Su,  E. J. Sundstrom,  Zhen Tao,  
 J. Thirman,  T. Tsuchimochi,  N. M. Tubman,  S. P. Veccham,  O. Vydrov,  
 J. Wenzel,  J. Witte,  A. Yamada,  Kun Yao,  S. Yeganeh,  S. R. Yost,  
 A. Zech,  Igor Ying Zhang,  Xing Zhang,  Yu Zhang,  D. Zuev,  
 A. Aspuru-Guzik,  A. T. Bell,  N. A. Besley,  K. B. Bravaya,  B. R. Brooks,  
 D. Casanova,  Jeng-Da Chai,  S. Coriani,  C. J. Cramer,  
 A. E. DePrince, III,  R. A. DiStasio Jr.,  A. Dreuw,  B. D. Dunietz,  
 T. R. Furlani,  W. A. Goddard III,  S. Grimme,  S. Hammes-Schiffer,  
 T. Head-Gordon,  W. J. Hehre,  Chao-Ping Hsu,  T.-C. Jagau,  Yousung Jung,  
 A. Klamt,  Jing Kong,  D. S. Lambrecht,  WanZhen Liang,  N. J. Mayhall,  
 C. W. McCurdy,  J. B. Neaton,  C. Ochsenfeld,  J. A. Parkhill,  R. Peverati,  
 V. A. Rassolov,  Yihan Shao,  L. V. Slipchenko,  T. Stauch,  R. P. Steele,  
 J. E. Subotnik,  A. J. W. Thom,  A. Tkatchenko,  D. G. Truhlar,  
 T. Van Voorhis,  T. A. Wesolowski,  K. B. Whaley,  H. L. Woodcock III,  
 P. M. Zimmerman,  S. Faraji,  P. M. W. Gill,  M. Head-Gordon,  
 J. M. Herbert,  A. I. Krylov

 Contributors to earlier versions of Q-Chem not listed above: 
 R. D. Adamson,  B. Austin,  R. Baer,  J. Baker,  G. J. O. Beran,  
 K. Brandhorst,  S. T. Brown,  E. F. C. Byrd,  A. K. Chakraborty,  
 G. K. L. Chan,  Chun-Min Chang,  Yunqing Chen,  C.-L. Cheng,  
 Siu Hung Chien,  D. M. Chipman,  D. L. Crittenden,  H. Dachsel,  
 R. J. Doerksen,  A. D. Dutoi,  R. G. Edgar,  J. Fosso-Tande,  
 L. Fusti-Molnar,  D. Ghosh,  A. Ghysels,  A. Golubeva-Zadorozhnaya,  
 J. Gonthier,  M. S. Gordon,  S. R. Gwaltney,  G. Hawkins,  J. E. Herr,  
 A. Heyden,  S. Hirata,  E. G. Hohenstein,  G. Kedziora,  F. J. Keil,  
 C. Kelley,  Jihan Kim,  R. A. King,  R. Z. Khaliullin,  P. P. Korambath,  
 W. Kurlancheek,  A. Laurent,  A. M. Lee,  M. S. Lee,  S. V. Levchenko,  
 Ching Yeh Lin,  D. Liotard,  E. Livshits,  R. C. Lochan,  I. Lotan,  
 L. A. Martinez-Martinez,  P. E. Maslen,  N. Nair,  D. P. O'Neill,  
 D. Neuhauser,  E. Neuscamman,  C. M. Oana,  R. Olivares-Amaya,  R. Olson,  
 T. M. Perrine,  B. Peters,  P. A. Pieniazek,  A. Prociuk,  Y. M. Rhee,  
 J. Ritchie,  M. A. Rohrdanz,  E. Rosta,  N. J. Russ,  H. F. Schaefer III,  
 M. W. Schmidt,  N. E. Schultz,  S. Sharma,  N. Shenvi,  C. D. Sherrill,  
 A. C. Simmonett,  A. Sodt,  T. Stein,  D. Stuck,  K. S. Thanthiriwatte,  
 V. Vanovschi,  L. Vogt,  Tao Wang,  A. Warshel,  M. A. Watson,  
 C. F. Williams,  Q. Wu,  X. Xu,  Jun Yang,  W. Zhang,  Yan Zhao

 Please cite Q-Chem as follows:
 Y. Shao et al., Mol. Phys. 113, 184-215 (2015)
 DOI: 10.1080/00268976.2014.952696

 Q-Chem 5.4.0 for Intel X86 EM64T Linux

 Parts of Q-Chem use Armadillo 9.800.1 (Horizon Scraper).
 http://arma.sourceforge.net/

 Q-Chem begins on Sun Jul 10 10:25:44 2022  

 Host: 
0

     Scratch files written to ./qchem2273867//
 May1621 |scratch|qcdevops|jenkins|workspace|build_RNUM    
 Processing $rem in /cm/shared/apps/spack/cpu/opt/spack/linux-centos8-zen2/gcc-10.2.0/qchem-5.4-akfmr7b3t57bfs6qan3padb2wnb2i7cl/config/preferences:
 Processing $rem in /home/theleonzhang/.qchemrc:
 Symmetry turned off for PCM/SM12/SMD calculation
 Core orbitals will be frozen

 Checking the input file for inconsistencies... 	...done.

--------------------------------------------------------------
User input:
--------------------------------------------------------------
$molecule
0 1
C	-0.592148	-0.237129	0.016439
C	0.155752	0.194671	1.115839
C	1.354252	0.886571	0.793139
H	-0.163648	0.010271	2.152539
C	1.545352	0.996871	-0.596061
S	0.224052	0.234071	-1.470361
C	2.296352	1.430471	1.831039
H	1.927652	1.217571	2.853139
H	2.416752	2.530371	1.742639
H	3.309152	0.984671	1.742639
C	-0.592148	-1.677829	0.016439
H	0.471452	-1.677529	-0.170961
H	-0.449948	-2.381629	0.823239
H	-0.756648	-2.196729	-0.916261
H	2.367452	1.471471	-1.145161
$end

$rem
JOBTYPE		SP
EXCHANGE	HF
CORRELATION	pRIMP2
BASIS		cc-pvtz
METHOD		rimp2
AUX_BASIS	rimp2-cc-pvtz
SOLVENT_METHOD	PCM
PURECART	11111
SYMMETRY	false
MEM_TOTAL	110000
SCF_CONVERGENCE = 6
THRESH=10
$end



$solvent
dielectric 4.90
$end
--------------------------------------------------------------
 ----------------------------------------------------------------
             Standard Nuclear Orientation (Angstroms)
    I     Atom           X                Y                Z
 ----------------------------------------------------------------
    1      C      -0.5921480000    -0.2371290000     0.0164390000
    2      C       0.1557520000     0.1946710000     1.1158390000
    3      C       1.3542520000     0.8865710000     0.7931390000
    4      H      -0.1636480000     0.0102710000     2.1525390000
    5      C       1.5453520000     0.9968710000    -0.5960610000
    6      S       0.2240520000     0.2340710000    -1.4703610000
    7      C       2.2963520000     1.4304710000     1.8310390000
    8      H       1.9276520000     1.2175710000     2.8531390000
    9      H       2.4167520000     2.5303710000     1.7426390000
   10      H       3.3091520000     0.9846710000     1.7426390000
   11      C      -0.5921480000    -1.6778290000     0.0164390000
   12      H       0.4714520000    -1.6775290000    -0.1709610000
   13      H      -0.4499480000    -2.3816290000     0.8232390000
   14      H      -0.7566480000    -2.1967290000    -0.9162610000
   15      H       2.3674520000     1.4714710000    -1.1451610000
 ----------------------------------------------------------------
 Nuclear Repulsion Energy =         352.37448488 hartrees
 There are       30 alpha and       30 beta electrons

 Q-Chem warning in module forms1/BasisType.C, line 2236:

 You are not using the predefined 5D/6D in this basis set.

 Requested basis set is cc-pVTZ
 There are 120 shells and 326 basis functions

 Total QAlloc Memory Limit 110000 MB
 Mega-Array Size       188 MB
 MEM_STATIC part       192 MB
 Discretize the solute cavity surface with Lebedev spheres
	Using 110 Lebedev grid points for each H atom
	Using 194 Lebedev grid points for other atoms
	Atomic van der Waals radii will be scaled by 1.20
 Remove points where switching function is < 1.0e-08
 Keep 1026 surface tesserae and discard 1212 interior tesserae
 Molecular Surface Area = 155.541 Angst**2

                       Distance Matrix (Angstroms)
             C (  1)   C (  2)   C (  3)   H (  4)   C (  5)   S (  6)
   C (  2)  1.398029
   C (  3)  2.377906  1.421008
   H (  4)  2.192656  1.100348  2.218083
   C (  5)  2.542994  2.346298  1.406614  3.383617
   S (  6)  1.760337  2.587402  2.612765  3.650452  1.758436
   C (  7)  3.796985  2.573107  1.503535  2.858659  2.577368  4.077382
   H (  8)  4.063547  2.684058  2.163781  2.514349  3.477333  4.749966
   H (  9)  4.437601  3.310664  2.175439  3.630067  2.929245  4.517111
   H ( 10)  4.437646  3.310726  2.175502  3.630126  2.929276  4.517146
   C ( 11)  1.440700  2.296582  3.311779  2.756124  3.478230  2.555801
   H ( 12)  1.800310  2.293611  2.878095  2.941203  2.913140  2.324621
   H ( 13)  2.295654  2.662670  3.733253  2.751398  4.172517  3.543552
   H ( 14)  2.176470  3.268134  4.109098  3.826229  3.949786  2.679102
   H ( 15)  3.609413  3.410859  2.263998  4.406404  1.096633  2.496213
             C (  7)   H (  8)   H (  9)   H ( 10)   C ( 11)   H ( 12)
   H (  8)  1.107228
   H (  9)  1.109996  1.787700
   H ( 10)  1.110097  1.787735  1.784815
   C ( 11)  4.614947  4.772798  5.453640  5.028799
   H ( 12)  4.122854  4.432528  5.015225  4.336094  1.079983
   H ( 13)  4.805198  4.767359  5.761164  5.129143  1.080038  1.527471
   H ( 14)  5.479511  5.750764  6.283764  5.807046  1.079929  1.527505
   H ( 15)  2.977331  4.030421  3.076213  3.076225  4.475113  3.802642
             H ( 13)   H ( 14)
   H ( 14)  1.775982
   H ( 15)  5.163208  4.823701
 
 Requested basis set is rimp2-cc-pVTZ
 There are 250 shells and 848 basis functions
 A cutoff of  1.0D-10 yielded   6416 shell pairs
 There are     47110 function pairs (     60532 Cartesian)
 Smallest overlap matrix eigenvalue = 1.35E-04

 Scale SEOQF with 1.000000e-01/1.000000e-01/1.000000e-01

 Standard Electronic Orientation quadrupole field applied
 Nucleus-field energy     =    -0.0000000017 hartrees
 Guess from superposition of atomic densities
 Warning:  Energy on first SCF cycle will be non-variational
 SAD guess density has 60.000000 electrons

 -----------------------------------------------------------------------
  General SCF calculation program by
  Eric Jon Sundstrom, Paul Horn, Yuezhi Mao, Dmitri Zuev, Alec White,
  David Stuck, Shaama M.S., Shane Yost, Joonho Lee, David Small,
  Daniel Levine, Susi Lehtola, Hugh Burton, Evgeny Epifanovsky,
  Bang C. Huynh
 -----------------------------------------------------------------------
 Hartree-Fock
 A restricted SCF calculation will be
 performed using DIIS
 SCF converges when DIIS error is below 1.0e-06
 ---------------------------------------
  Cycle       Energy         DIIS error
 ---------------------------------------
    1    -632.2492525293      2.97e-02  
    2    -629.2678002973      1.93e-03  
    3    -629.3392018918      6.73e-04  
    4    -629.3469067555      3.44e-04  
    5    -629.3490582915      6.44e-05  
    6    -629.3492201512      3.11e-05  
    7    -629.3492674028      1.36e-05  
    8    -629.3492832282      7.02e-06  
    9    -629.3492863855      2.45e-06  
   10    -629.3492868454      9.47e-07  Convergence criterion met
 ---------------------------------------
 SCF time:   CPU 153.33s  wall 154.00s 

************** Final PCM Free Energy Summary **************
 G_electrostatic  =      -0.00610670 hartree =      -3.83201122 kcal/mol
 G_cavitation     =       0.00000000 hartree =       0.00000000 kcal/mol
 G_dispersion     =       0.00000000 hartree =       0.00000000 kcal/mol
 G_repulsion      =       0.00000000 hartree =       0.00000000 kcal/mol
 --------------------------------------------------
 Non-electrostatic Free Energy =       0.00000000 hartree =       0.00000000 kcal/mol
 Total                         =      -0.00610670 hartree =      -3.83201122 kcal/mol
 --------------------------------------------------
 SCF Energy (H0 + V/2)                       =    -629.34928685 
 Solute Internal Energy (H0)                 =    -629.34318015 
 Total Free Energy (H0 + V/2 + non-elec)     =    -629.34928685 hartree
                                             = -394922.63806256 kcal/mol
***********************************************************

 SCF   energy in the final basis set =     -629.3492868454
 Total energy in the final basis set =     -629.3492868454


 --------------------------------------------------------------
  Generalized many-body perturbation theory program
  by Joonho Lee, Fazle Rob, Xintian Feng, Evgeny Epifanovsky

 No regularization used 
 (reg. param. = 0.0000e+00)
  (P|Q)^-1/2 Time:  CPU 0.48 s  wall 0.48 s

 In RI-MP2 calculation: 
 # of frozen core orbitals: 11

 Components of the RIMP2 correlation energy:
        aaaa    correlation energy =        -0.1479331949 a.u.
        abab    correlation energy =        -0.8954203927 a.u.
        bbbb    correlation energy =        -0.1479331949 a.u.
        non-Brillouin singles      =        -0.0000000000 a.u.
        total same-spin energy     =        -0.2958663898 a.u.
        total opposite-spin energy =        -0.8954203927 a.u.

 Total  RIMP2   correlation energy =        -1.1912867824 a.u.
        RIMP2         total energy =      -630.5405736278 a.u.

 RI-MP2 Energy Time:  CPU 11.29 s  wall 11.33 s
 
 --------------------------------------------------------------
 
                    Orbital Energies (a.u.)
 --------------------------------------------------------------
 
 Alpha MOs
 -- Occupied --
-91.9737 -11.2798 -11.2570 -11.2514 -11.2453 -11.2294 -11.2148  -8.9750
 -6.6558  -6.6550  -6.6547  -1.1790  -1.0602  -0.9979  -0.9393  -0.8798
 -0.7535  -0.7298  -0.6475  -0.5914  -0.5830  -0.5664  -0.5542  -0.5458
 -0.5101  -0.4942  -0.4624  -0.4333  -0.3395  -0.2894
 -- Virtual --
  0.0661   0.1413   0.1589   0.1759   0.1823   0.1928   0.2048   0.2148
  0.2266   0.2440   0.2478   0.2611   0.2931   0.3137   0.3285   0.3469
  0.3643   0.3875   0.3983   0.4122   0.4399   0.4423   0.4627   0.4701
  0.4810   0.5075   0.5158   0.5241   0.5459   0.5504   0.5699   0.5744
  0.5887   0.6009   0.6122   0.6135   0.6291   0.6341   0.6413   0.6444
  0.6591   0.6687   0.6882   0.6954   0.7207   0.7403   0.7535   0.7713
  0.7944   0.8177   0.8334   0.8572   0.8743   0.8790   0.8892   0.9203
  0.9573   0.9818   1.0184   1.0390   1.0481   1.0586   1.0748   1.0870
  1.1140   1.1238   1.1380   1.1540   1.1653   1.1715   1.1843   1.2049
  1.2282   1.2428   1.2534   1.2638   1.2826   1.3038   1.3151   1.3366
  1.3585   1.3633   1.3911   1.3978   1.4105   1.4344   1.4559   1.4669
  1.4817   1.4931   1.5248   1.5293   1.5456   1.5577   1.5678   1.5897
  1.6093   1.6277   1.6374   1.6661   1.6712   1.7065   1.7128   1.7428
  1.7453   1.7898   1.8228   1.8295   1.8657   1.9222   1.9446   1.9630
  1.9711   2.0443   2.0612   2.1449   2.1660   2.1941   2.2059   2.2292
  2.2695   2.2825   2.3510   2.3949   2.4226   2.4788   2.4968   2.5316
  2.5660   2.5826   2.6441   2.6471   2.6876   2.6966   2.7137   2.7273
  2.7494   2.7623   2.7921   2.8335   2.8350   2.8678   2.8873   2.9125
  2.9195   2.9631   2.9786   2.9903   3.0237   3.0289   3.0396   3.0692
  3.0993   3.1121   3.1234   3.1458   3.1559   3.1647   3.1776   3.1929
  3.2050   3.2302   3.2401   3.2513   3.2695   3.2861   3.3045   3.3289
  3.3427   3.3541   3.3683   3.3837   3.3942   3.4137   3.4197   3.4387
  3.4519   3.4765   3.4872   3.5016   3.5145   3.5342   3.5404   3.5573
  3.5754   3.5798   3.6046   3.6284   3.6390   3.6688   3.6839   3.7053
  3.7145   3.7235   3.7281   3.7604   3.7786   3.7866   3.7990   3.8060
  3.8208   3.8570   3.8958   3.9084   3.9379   3.9509   3.9683   3.9751
  4.0061   4.0228   4.0369   4.0495   4.0558   4.0867   4.1085   4.1257
  4.1341   4.1699   4.1915   4.2102   4.2162   4.2331   4.2440   4.2668
  4.2940   4.3135   4.3155   4.3339   4.3586   4.3818   4.4008   4.4182
  4.4336   4.4542   4.4742   4.4857   4.5043   4.5296   4.5603   4.5963
  4.6060   4.6435   4.6533   4.6895   4.7018   4.7147   4.7714   4.7884
  4.8228   4.8601   4.8623   4.8822   4.9294   4.9462   5.0114   5.0856
  5.1165   5.1530   5.1779   5.1950   5.2287   5.2586   5.2884   5.3268
  5.3743   5.4022   5.4195   5.4403   5.4771   5.5260   5.5405   5.5489
  5.5954   5.6153   5.6262   5.6880   5.6971   5.8021   5.8693   5.8993
  5.9327   5.9880   6.0184   6.0850   6.2082   6.2293   6.2471   6.3320
  6.4409   6.4986   9.3403  11.8118  12.7903  13.6667  14.1793  14.4878
 --------------------------------------------------------------
 
          Ground-State Mulliken Net Atomic Charges

     Atom                 Charge (a.u.)
  ----------------------------------------
      1 C                    -0.073265
      2 C                    -0.156644
      3 C                    -0.008923
      4 H                     0.182939
      5 C                    -0.202910
      6 S                     0.009693
      7 C                    -0.268274
      8 H                     0.102745
      9 H                     0.107633
     10 H                     0.104924
     11 C                    -0.357883
     12 H                     0.107038
     13 H                     0.140478
     14 H                     0.114675
     15 H                     0.197772
  ----------------------------------------
  Sum of atomic charges =     0.000000

 -----------------------------------------------------------------
                    Cartesian Multipole Moments
 -----------------------------------------------------------------
    Charge (ESU x 10^10)
                -0.0000
    Dipole Moment (Debye)
         X       2.7286      Y      -0.1486      Z       1.6236
       Tot       3.1786
    Quadrupole Moments (Debye-Ang)
        XX     -48.8825     XY       3.7972     YY     -49.7712
        XZ      -0.0784     YZ      -0.0001     ZZ     -47.7656
    Octopole Moments (Debye-Ang^2)
       XXX     -78.0103    XXY      -1.3692    XYY     -24.1824
       YYY     -36.2868    XXZ      -5.0360    XYZ      -2.2543
       YYZ      -2.0351    XZZ     -26.5871    YZZ     -10.1639
       ZZZ       3.1777
    Hexadecapole Moments (Debye-Ang^3)
      XXXX    -480.0664   XXXY    -135.1415   XXYY    -142.9840
      XYYY    -147.7414   YYYY    -376.3660   XXXZ     -89.6747
      XXYZ     -21.1719   XYYZ     -29.4748   YYYZ     -51.0935
      XXZZ    -157.1973   XYZZ     -40.6366   YYZZ    -143.9226
      XZZZ     -88.3595   YZZZ     -49.3044   ZZZZ    -479.5562
 -----------------------------------------------------------------
 Total job time:  166.32s(wall), 164.98s(cpu) 
 Sun Jul 10 10:28:30 2022

        *************************************************************
        *                                                           *
        *  Thank you very much for using Q-Chem.  Have a nice day.  *
        *                                                           *
        *************************************************************


remove work dirs ./qchem2273867.0 -- ./qchem2273867.-1
rm -rf ./qchem2273867
