You are running Q-Chem version: 5.4.0

#
# job setting
#
local host:  exp-1-46
current dir: /expanse/lustre/scratch/theleonzhang/temp_project/Hydrogenated_Impropers_Test
input file:  Methylthiophene_Phi_5_Theta_280_Methylthiophene_Hydrogenated_Improper.qcin
output file: 
nprocs     : 0
nthreads   : 1
#
# qchem installation setting
#
QC:          /cm/shared/apps/spack/cpu/opt/spack/linux-centos8-zen2/gcc-10.2.0/qchem-5.4-akfmr7b3t57bfs6qan3padb2wnb2i7cl
QCAUX:       /cm/shared/apps/spack/cpu/opt/spack/linux-centos8-zen2/gcc-10.2.0/qchem-5.4-akfmr7b3t57bfs6qan3padb2wnb2i7cl/qcaux
QCPROG:      /cm/shared/apps/spack/cpu/opt/spack/linux-centos8-zen2/gcc-10.2.0/qchem-5.4-akfmr7b3t57bfs6qan3padb2wnb2i7cl/exe/qcprog.exe_s
QCPROG_S:    /cm/shared/apps/spack/cpu/opt/spack/linux-centos8-zen2/gcc-10.2.0/qchem-5.4-akfmr7b3t57bfs6qan3padb2wnb2i7cl/exe/qcprog.exe_s
PARALLEL:    -DSERIAL
QCMPI:       mpich
#
# qchem directory setting
#
qcrun:       qchem10764
QCSCRATCH:   .
QCLOCALSCR:  
QCTMPDIR:    .
QCFILEPREF:  ./qchem10764
QCSAVEDIR:   
workdirs:    ./qchem10764
workdir0:    ./qchem10764
partmpdirs =  
#
# parallel setting
#
QCRSH:           ssh
QCMPI:           mpich
QCMPIRUN:        /cm/shared/apps/spack/cpu/opt/spack/linux-centos8-zen2/gcc-10.2.0/qchem-5.4-akfmr7b3t57bfs6qan3padb2wnb2i7cl/bin/mpi/mpirun_qchem
QCMACHINEFILE:   ./qchem10764/hostfile

#
# env setting
#
exported envs:   QC QCAUX QCSCRATCH QCRUNNAME QCFILEPREF QCPROG QCPROG_S GUIFILE

Running Job 1 of 1 Methylthiophene_Phi_5_Theta_280_Methylthiophene_Hydrogenated_Improper.qcin
qchem Methylthiophene_Phi_5_Theta_280_Methylthiophene_Hydrogenated_Improper.qcin_10764.0 ./qchem10764/ 0
/cm/shared/apps/spack/cpu/opt/spack/linux-centos8-zen2/gcc-10.2.0/qchem-5.4-akfmr7b3t57bfs6qan3padb2wnb2i7cl/exe/qcprog.exe_s Methylthiophene_Phi_5_Theta_280_Methylthiophene_Hydrogenated_Improper.qcin_10764.0 ./qchem10764/
                  Welcome to Q-Chem
     A Quantum Leap Into The Future Of Chemistry


 Q-Chem 5.4, Q-Chem, Inc., Pleasanton, CA (2021)

 License issued to: University of California, San Diego (site)

 E. Epifanovsky,  A. T. B. Gilbert,  Xintian Feng,  Joonho Lee,  Yuezhi Mao,  
 N. Mardirossian,  P. Pokhilko,  A. White,  M. Wormit,  M. P. Coons,  
 A. L. Dempwolff,  Zhengting Gan,  D. Hait,  P. R. Horn,  L. D. Jacobson,  
 I. Kaliman,  J. Kussmann,  A. W. Lange,  Ka Un Lao,  D. S. Levine,  Jie Liu,  
 S. C. McKenzie,  A. F. Morrison,  K. Nanda,  F. Plasser,  D. R. Rehn,  
 M. L. Vidal,  Zhi-Qiang You,  Ying Zhu,  B. Alam,  B. Albrecht,  
 A. Aldossary,  E. Alguire,  J. H. Andersen,  D. Barton,  K. Begam,  A. Behn,  
 Y. A. Bernard,  E. J. Berquist,  H. Burton,  A. Carreras,  K. Carter-Fenk,  
 R. Chakraborty,  A. D. Chien,  K. D. Closser,  V. Cofer-Shabica,  
 S. Dasgupta,  Jia Deng,  M. de Wergifosse,  M. Diedenhofen,  Hainam Do,  
 S. Ehlert,  Po-Tung Fang,  S. Fatehi,  Qingguo Feng,  J. Gayvert,  
 Qinghui Ge,  G. Gidofalvi,  M. Goldey,  J. Gomes,  C. Gonzalez-Espinoza,  
 S. Gulania,  A. Gunina,  M. W. D. Hanson-Heine,  P. H. P. Harbach,  
 A. W. Hauser,  M. F. Herbst,  M. Hernandez Vera,  M. Hodecker,  
 Z. C. Holden,  S. Houck,  Xunkun Huang,  Kerwin Hui,  B. C. Huynh,  
 M. Ivanov,  Hyunjun Ji,  Hanjie Jiang,  B. Kaduk,  S. Kaehler,  
 K. Khistyaev,  Jaehoon Kim,  P. Klunzinger,  Z. Koczor-Benda,  
 Joong Hoon Koh,  D. Kosenkov,  L. Koulias,  T. Kowalczyk,  C. M. Krauter,  
 K. Kue,  A. Kunitsa,  T. Kus,  A. Landau,  K. V. Lawler,  D. Lefrancois,  
 S. Lehtola,  Rain Li,  Yi-Pei Li,  Jiashu Liang,  M. Liebenthal,  
 Hung-Hsuan Lin,  You-Sheng Lin,  Fenglai Liu,  Kuan-Yu Liu,  
 M. Loipersberger,  A. Luenser,  A. Manjanath,  P. Manohar,  E. Mansoor,  
 S. F. Manzer,  Shan-Ping Mao,  A. V. Marenich,  T. Markovich,  S. Mason,  
 S. A. Maurer,  P. F. McLaughlin,  M. F. S. J. Menger,  J.-M. Mewes,  
 S. A. Mewes,  P. Morgante,  J. W. Mullinax,  T. S. Nguyen-Beck,  
 K. J. Oosterbaan,  G. Paran,  Alexander C. Paul,  Suranjan K. Paul,  
 F. Pavosevic,  Zheng Pei,  S. Prager,  E. I. Proynov,  E. Ramos,  B. Rana,  
 A. E. Rask,  A. Rettig,  R. M. Richard,  F. Rob,  E. Rossomme,  T. Scheele,  
 M. Scheurer,  M. Schneider,  N. Sergueev,  S. M. Sharada,  W. Skomorowski,  
 D. W. Small,  C. J. Stein,  Yu-Chuan Su,  E. J. Sundstrom,  Zhen Tao,  
 J. Thirman,  T. Tsuchimochi,  N. M. Tubman,  S. P. Veccham,  O. Vydrov,  
 J. Wenzel,  J. Witte,  A. Yamada,  Kun Yao,  S. Yeganeh,  S. R. Yost,  
 A. Zech,  Igor Ying Zhang,  Xing Zhang,  Yu Zhang,  D. Zuev,  
 A. Aspuru-Guzik,  A. T. Bell,  N. A. Besley,  K. B. Bravaya,  B. R. Brooks,  
 D. Casanova,  Jeng-Da Chai,  S. Coriani,  C. J. Cramer,  
 A. E. DePrince, III,  R. A. DiStasio Jr.,  A. Dreuw,  B. D. Dunietz,  
 T. R. Furlani,  W. A. Goddard III,  S. Grimme,  S. Hammes-Schiffer,  
 T. Head-Gordon,  W. J. Hehre,  Chao-Ping Hsu,  T.-C. Jagau,  Yousung Jung,  
 A. Klamt,  Jing Kong,  D. S. Lambrecht,  WanZhen Liang,  N. J. Mayhall,  
 C. W. McCurdy,  J. B. Neaton,  C. Ochsenfeld,  J. A. Parkhill,  R. Peverati,  
 V. A. Rassolov,  Yihan Shao,  L. V. Slipchenko,  T. Stauch,  R. P. Steele,  
 J. E. Subotnik,  A. J. W. Thom,  A. Tkatchenko,  D. G. Truhlar,  
 T. Van Voorhis,  T. A. Wesolowski,  K. B. Whaley,  H. L. Woodcock III,  
 P. M. Zimmerman,  S. Faraji,  P. M. W. Gill,  M. Head-Gordon,  
 J. M. Herbert,  A. I. Krylov

 Contributors to earlier versions of Q-Chem not listed above: 
 R. D. Adamson,  B. Austin,  R. Baer,  J. Baker,  G. J. O. Beran,  
 K. Brandhorst,  S. T. Brown,  E. F. C. Byrd,  A. K. Chakraborty,  
 G. K. L. Chan,  Chun-Min Chang,  Yunqing Chen,  C.-L. Cheng,  
 Siu Hung Chien,  D. M. Chipman,  D. L. Crittenden,  H. Dachsel,  
 R. J. Doerksen,  A. D. Dutoi,  R. G. Edgar,  J. Fosso-Tande,  
 L. Fusti-Molnar,  D. Ghosh,  A. Ghysels,  A. Golubeva-Zadorozhnaya,  
 J. Gonthier,  M. S. Gordon,  S. R. Gwaltney,  G. Hawkins,  J. E. Herr,  
 A. Heyden,  S. Hirata,  E. G. Hohenstein,  G. Kedziora,  F. J. Keil,  
 C. Kelley,  Jihan Kim,  R. A. King,  R. Z. Khaliullin,  P. P. Korambath,  
 W. Kurlancheek,  A. Laurent,  A. M. Lee,  M. S. Lee,  S. V. Levchenko,  
 Ching Yeh Lin,  D. Liotard,  E. Livshits,  R. C. Lochan,  I. Lotan,  
 L. A. Martinez-Martinez,  P. E. Maslen,  N. Nair,  D. P. O'Neill,  
 D. Neuhauser,  E. Neuscamman,  C. M. Oana,  R. Olivares-Amaya,  R. Olson,  
 T. M. Perrine,  B. Peters,  P. A. Pieniazek,  A. Prociuk,  Y. M. Rhee,  
 J. Ritchie,  M. A. Rohrdanz,  E. Rosta,  N. J. Russ,  H. F. Schaefer III,  
 M. W. Schmidt,  N. E. Schultz,  S. Sharma,  N. Shenvi,  C. D. Sherrill,  
 A. C. Simmonett,  A. Sodt,  T. Stein,  D. Stuck,  K. S. Thanthiriwatte,  
 V. Vanovschi,  L. Vogt,  Tao Wang,  A. Warshel,  M. A. Watson,  
 C. F. Williams,  Q. Wu,  X. Xu,  Jun Yang,  W. Zhang,  Yan Zhao

 Please cite Q-Chem as follows:
 Y. Shao et al., Mol. Phys. 113, 184-215 (2015)
 DOI: 10.1080/00268976.2014.952696

 Q-Chem 5.4.0 for Intel X86 EM64T Linux

 Parts of Q-Chem use Armadillo 9.800.1 (Horizon Scraper).
 http://arma.sourceforge.net/

 Q-Chem begins on Sun Jul 10 10:01:19 2022  

 Host: 
0

     Scratch files written to ./qchem10764//
 May1621 |scratch|qcdevops|jenkins|workspace|build_RNUM    
 Processing $rem in /cm/shared/apps/spack/cpu/opt/spack/linux-centos8-zen2/gcc-10.2.0/qchem-5.4-akfmr7b3t57bfs6qan3padb2wnb2i7cl/config/preferences:
 Processing $rem in /home/theleonzhang/.qchemrc:
 Symmetry turned off for PCM/SM12/SMD calculation
 Core orbitals will be frozen

 Checking the input file for inconsistencies... 	...done.

--------------------------------------------------------------
User input:
--------------------------------------------------------------
$molecule
0 1
C	-0.058868	-0.573729	0.010154
C	0.016432	0.286571	1.109554
C	0.137032	1.665271	0.786854
H	-0.015668	-0.080829	2.146254
C	0.156332	1.885071	-0.602346
S	0.023332	0.365071	-1.476646
C	0.231932	2.748871	1.824754
H	0.194832	2.324771	2.846854
H	-0.600068	3.478371	1.736354
H	1.177932	3.322871	1.736354
C	-0.058868	-2.014429	0.010154
H	-0.246568	-2.014129	1.073754
H	-0.865568	-2.718229	-0.132146
H	0.873832	-2.533329	0.174654
H	0.239032	2.830671	-1.151446
$end

$rem
JOBTYPE		SP
EXCHANGE	HF
CORRELATION	pRIMP2
BASIS		cc-pvtz
METHOD		rimp2
AUX_BASIS	rimp2-cc-pvtz
SOLVENT_METHOD	PCM
PURECART	11111
SYMMETRY	false
MEM_TOTAL	110000
SCF_CONVERGENCE = 6
THRESH=10
$end



$solvent
dielectric 4.90
$end
--------------------------------------------------------------
 ----------------------------------------------------------------
             Standard Nuclear Orientation (Angstroms)
    I     Atom           X                Y                Z
 ----------------------------------------------------------------
    1      C      -0.0588680000    -0.5737290000     0.0101540000
    2      C       0.0164320000     0.2865710000     1.1095540000
    3      C       0.1370320000     1.6652710000     0.7868540000
    4      H      -0.0156680000    -0.0808290000     2.1462540000
    5      C       0.1563320000     1.8850710000    -0.6023460000
    6      S       0.0233320000     0.3650710000    -1.4766460000
    7      C       0.2319320000     2.7488710000     1.8247540000
    8      H       0.1948320000     2.3247710000     2.8468540000
    9      H      -0.6000680000     3.4783710000     1.7363540000
   10      H       1.1779320000     3.3228710000     1.7363540000
   11      C      -0.0588680000    -2.0144290000     0.0101540000
   12      H      -0.2465680000    -2.0141290000     1.0737540000
   13      H      -0.8655680000    -2.7182290000    -0.1321460000
   14      H       0.8738320000    -2.5333290000     0.1746540000
   15      H       0.2390320000     2.8306710000    -1.1514460000
 ----------------------------------------------------------------
 Nuclear Repulsion Energy =         344.28005707 hartrees
 There are       30 alpha and       30 beta electrons

 Q-Chem warning in module forms1/BasisType.C, line 2236:

 You are not using the predefined 5D/6D in this basis set.

 Requested basis set is cc-pVTZ
 There are 120 shells and 326 basis functions

 Total QAlloc Memory Limit 110000 MB
 Mega-Array Size       188 MB
 MEM_STATIC part       192 MB
 Discretize the solute cavity surface with Lebedev spheres
	Using 110 Lebedev grid points for each H atom
	Using 194 Lebedev grid points for other atoms
	Atomic van der Waals radii will be scaled by 1.20
 Remove points where switching function is < 1.0e-08
 Keep 1062 surface tesserae and discard 1176 interior tesserae
 Molecular Surface Area = 159.009 Angst**2

                       Distance Matrix (Angstroms)
             C (  1)   C (  2)   C (  3)   H (  4)   C (  5)   S (  6)
   C (  2)  1.398022
   C (  3)  2.377974  1.421089
   H (  4)  2.192656  1.100345  2.218141
   C (  5)  2.543062  2.346354  1.406613  3.383659
   S (  6)  1.760306  2.587400  2.612830  3.650445  1.758548
   C (  7)  3.796974  2.573106  1.503473  2.858648  2.577340  4.077408
   H (  8)  4.063562  2.684082  2.163765  2.514371  3.477326  4.749999
   H (  9)  4.437587  3.310670  2.175362  3.630075  2.929209  4.517149
   H ( 10)  4.437672  3.310752  2.175468  3.630134  2.929241  4.517195
   C ( 11)  1.440700  2.551265  3.765877  2.881597  3.953172  2.807018
   H ( 12)  1.800341  2.315960  3.710451  2.222886  4.263262  3.498282
   H ( 13)  2.295625  3.368763  4.589645  3.587383  4.738749  3.479161
   H ( 14)  2.176470  3.092088  4.306496  3.270042  4.543214  3.442508
   H ( 15)  3.609432  3.410882  2.263972  4.406419  1.096590  2.496290
             C (  7)   H (  8)   H (  9)   H ( 10)   C ( 11)   H ( 12)
   H (  8)  1.107215
   H (  9)  1.110049  1.787699
   H ( 10)  1.110048  1.787708  1.784787
   C ( 11)  5.105523  5.190365  5.783037  5.744233
   H ( 12)  4.845527  4.707948  5.543605  5.563435  1.080035
   H ( 13)  5.909581  5.952372  6.477626  6.645455  1.079976  1.527453
   H ( 14)  5.571041  5.585949  6.383716  6.068481  1.079929  1.527497
   H ( 15)  2.977332  4.030421  3.076198  3.076229  4.991298  5.353448
             H ( 13)   H ( 14)
   H ( 14)  1.775902
   H ( 15)  5.748861  5.561835
 
 Requested basis set is rimp2-cc-pVTZ
 There are 250 shells and 848 basis functions
 A cutoff of  1.0D-10 yielded   6197 shell pairs
 There are     45393 function pairs (     58372 Cartesian)
 Smallest overlap matrix eigenvalue = 1.00E-04

 Scale SEOQF with 1.000000e+00/1.000000e-01/1.000000e-01

 Standard Electronic Orientation quadrupole field applied
 Nucleus-field energy     =     0.0000000038 hartrees
 Guess from superposition of atomic densities
 Warning:  Energy on first SCF cycle will be non-variational
 SAD guess density has 60.000000 electrons

 -----------------------------------------------------------------------
  General SCF calculation program by
  Eric Jon Sundstrom, Paul Horn, Yuezhi Mao, Dmitri Zuev, Alec White,
  David Stuck, Shaama M.S., Shane Yost, Joonho Lee, David Small,
  Daniel Levine, Susi Lehtola, Hugh Burton, Evgeny Epifanovsky,
  Bang C. Huynh
 -----------------------------------------------------------------------
 Hartree-Fock
 A restricted SCF calculation will be
 performed using DIIS
 SCF converges when DIIS error is below 1.0e-06
 ---------------------------------------
  Cycle       Energy         DIIS error
 ---------------------------------------
    1    -632.1072628435      2.92e-02  
    2    -629.3466040639      1.91e-03  
    3    -629.4159303358      6.31e-04  
    4    -629.4228347838      3.23e-04  
    5    -629.4246425377      6.17e-05  
    6    -629.4247696843      2.44e-05  
    7    -629.4248006591      1.13e-05  
    8    -629.4248096353      4.78e-06  
    9    -629.4248110487      1.67e-06  
   10    -629.4248112024      4.96e-07  Convergence criterion met
 ---------------------------------------
 SCF time:   CPU 143.97s  wall 144.00s 

************** Final PCM Free Energy Summary **************
 G_electrostatic  =      -0.00548869 hartree =      -3.44420265 kcal/mol
 G_cavitation     =       0.00000000 hartree =       0.00000000 kcal/mol
 G_dispersion     =       0.00000000 hartree =       0.00000000 kcal/mol
 G_repulsion      =       0.00000000 hartree =       0.00000000 kcal/mol
 --------------------------------------------------
 Non-electrostatic Free Energy =       0.00000000 hartree =       0.00000000 kcal/mol
 Total                         =      -0.00548869 hartree =      -3.44420265 kcal/mol
 --------------------------------------------------
 SCF Energy (H0 + V/2)                       =    -629.42481120 
 Solute Internal Energy (H0)                 =    -629.41932252 
 Total Free Energy (H0 + V/2 + non-elec)     =    -629.42481120 hartree
                                             = -394970.03031189 kcal/mol
***********************************************************

 SCF   energy in the final basis set =     -629.4248112024
 Total energy in the final basis set =     -629.4248112024


 --------------------------------------------------------------
  Generalized many-body perturbation theory program
  by Joonho Lee, Fazle Rob, Xintian Feng, Evgeny Epifanovsky

 No regularization used 
 (reg. param. = 0.0000e+00)
  (P|Q)^-1/2 Time:  CPU 0.56 s  wall 0.56 s

 In RI-MP2 calculation: 
 # of frozen core orbitals: 11

 Components of the RIMP2 correlation energy:
        aaaa    correlation energy =        -0.1456484838 a.u.
        abab    correlation energy =        -0.8866101284 a.u.
        bbbb    correlation energy =        -0.1456484838 a.u.
        non-Brillouin singles      =        -0.0000000000 a.u.
        total same-spin energy     =        -0.2912969675 a.u.
        total opposite-spin energy =        -0.8866101284 a.u.

 Total  RIMP2   correlation energy =        -1.1779070959 a.u.
        RIMP2         total energy =      -630.6027182983 a.u.

 RI-MP2 Energy Time:  CPU 14.88 s  wall 14.94 s
 
 --------------------------------------------------------------
 
                    Orbital Energies (a.u.)
 --------------------------------------------------------------
 
 Alpha MOs
 -- Occupied --
-91.9748 -11.2779 -11.2571 -11.2470 -11.2342 -11.2274 -11.2166  -8.9749
 -6.6559  -6.6553  -6.6548  -1.1610  -1.0541  -0.9997  -0.9396  -0.8845
 -0.7422  -0.7241  -0.6486  -0.5921  -0.5777  -0.5664  -0.5597  -0.5420
 -0.5102  -0.4855  -0.4677  -0.4375  -0.3380  -0.3038
 -- Virtual --
  0.1046   0.1445   0.1504   0.1768   0.1865   0.1911   0.1994   0.2295
  0.2340   0.2444   0.2490   0.2697   0.3083   0.3170   0.3445   0.3576
  0.3738   0.3948   0.4122   0.4135   0.4384   0.4614   0.4709   0.4843
  0.4918   0.5025   0.5199   0.5269   0.5395   0.5434   0.5724   0.5886
  0.6018   0.6035   0.6232   0.6349   0.6409   0.6436   0.6456   0.6486
  0.6650   0.6729   0.6836   0.6948   0.7320   0.7510   0.7645   0.7766
  0.8009   0.8128   0.8447   0.8668   0.8728   0.8828   0.9105   0.9373
  0.9511   0.9747   0.9930   1.0144   1.0359   1.0494   1.0621   1.0770
  1.0802   1.0904   1.1040   1.1531   1.1575   1.1639   1.1953   1.2079
  1.2125   1.2388   1.2500   1.2557   1.2746   1.2887   1.3152   1.3228
  1.3443   1.3575   1.3902   1.4104   1.4314   1.4453   1.4733   1.4833
  1.4955   1.5128   1.5343   1.5371   1.5541   1.5649   1.5752   1.5840
  1.5962   1.6319   1.6526   1.6667   1.6862   1.6989   1.7157   1.7498
  1.7754   1.7972   1.8032   1.8227   1.9022   1.9066   1.9210   1.9540
  1.9933   2.0421   2.1005   2.1359   2.1866   2.1916   2.2118   2.2221
  2.2599   2.3047   2.3563   2.4172   2.4623   2.5029   2.5246   2.5650
  2.5768   2.6069   2.6318   2.6489   2.6668   2.6912   2.7130   2.7175
  2.7433   2.7584   2.7692   2.7962   2.8343   2.8419   2.8573   2.8819
  2.9050   2.9139   2.9460   2.9615   2.9958   3.0100   3.0403   3.0543
  3.0889   3.1075   3.1143   3.1404   3.1525   3.1549   3.1991   3.2005
  3.2240   3.2409   3.2591   3.2735   3.2983   3.3125   3.3190   3.3309
  3.3397   3.3541   3.3726   3.3798   3.3979   3.4118   3.4316   3.4340
  3.4349   3.4667   3.4814   3.4892   3.4983   3.5156   3.5366   3.5568
  3.5851   3.6063   3.6087   3.6125   3.6255   3.6588   3.6732   3.6848
  3.6989   3.7178   3.7253   3.7382   3.7616   3.7781   3.7881   3.7913
  3.8101   3.8353   3.8624   3.8749   3.8965   3.9151   3.9336   3.9531
  3.9733   3.9857   4.0067   4.0276   4.0358   4.0789   4.0889   4.1018
  4.1203   4.1430   4.1513   4.1691   4.1778   4.2208   4.2259   4.2295
  4.2709   4.2794   4.3088   4.3354   4.3420   4.3713   4.4006   4.4114
  4.4185   4.4352   4.4521   4.4639   4.4776   4.5095   4.5562   4.5791
  4.6041   4.6282   4.6600   4.6875   4.7188   4.7579   4.7740   4.7898
  4.8140   4.8299   4.8748   4.9026   4.9223   4.9402   5.0767   5.0988
  5.1173   5.1330   5.1914   5.2141   5.2549   5.2649   5.2934   5.3055
  5.3629   5.4003   5.4088   5.4471   5.4713   5.4932   5.5492   5.5716
  5.5985   5.6230   5.6345   5.6992   5.7227   5.8253   5.8543   5.8754
  5.9359   5.9596   6.0669   6.1417   6.2268   6.2484   6.2965   6.3664
  6.4128   6.4945   9.2397  11.4141  12.9319  13.8638  14.1893  14.5057
 --------------------------------------------------------------
 
          Ground-State Mulliken Net Atomic Charges

     Atom                 Charge (a.u.)
  ----------------------------------------
      1 C                     0.065791
      2 C                    -0.271531
      3 C                     0.031967
      4 H                     0.177344
      5 C                    -0.251797
      6 S                    -0.008033
      7 C                    -0.273566
      8 H                     0.101097
      9 H                     0.107138
     10 H                     0.107351
     11 C                    -0.373441
     12 H                     0.120166
     13 H                     0.149392
     14 H                     0.124936
     15 H                     0.193186
  ----------------------------------------
  Sum of atomic charges =     0.000000

 -----------------------------------------------------------------
                    Cartesian Multipole Moments
 -----------------------------------------------------------------
    Charge (ESU x 10^10)
                -0.0000
    Dipole Moment (Debye)
         X       0.0329      Y      -0.0937      Z       2.1450
       Tot       2.1473
    Quadrupole Moments (Debye-Ang)
        XX     -53.6282     XY       1.1490     YY     -42.2128
        XZ       0.0936     YZ      -1.0488     ZZ     -48.9671
    Octopole Moments (Debye-Ang^2)
       XXX      -9.4841    XXY     -32.6276    XYY      -2.6098
       YYY     -78.5242    XXZ      -2.1117    XYZ      -0.5664
       YYZ      -2.1416    XZZ      -2.6591    YZZ     -23.6193
       ZZZ       0.7734
    Hexadecapole Moments (Debye-Ang^3)
      XXXX     -82.8154   XXXY     -28.5203   XXYY    -156.1816
      XYYY     -19.0603   YYYY    -809.7868   XXXZ      -7.5569
      XXYZ     -29.2446   XYYZ      -2.7527   YYYZ    -106.5480
      XXZZ    -102.4743   XYZZ      -7.7289   YYZZ    -217.2365
      XZZZ      -9.1050   YZZZ     -96.4037   ZZZZ    -482.9226
 -----------------------------------------------------------------
 Total job time:  160.13s(wall), 159.24s(cpu) 
 Sun Jul 10 10:03:59 2022

        *************************************************************
        *                                                           *
        *  Thank you very much for using Q-Chem.  Have a nice day.  *
        *                                                           *
        *************************************************************


remove work dirs ./qchem10764.0 -- ./qchem10764.-1
rm -rf ./qchem10764
