You are running Q-Chem version: 5.4.0

#
# job setting
#
local host:  exp-5-33
current dir: /expanse/lustre/scratch/theleonzhang/temp_project/Hydrogenated_Impropers_Test
input file:  Methylthiophene_Phi_5_Theta_240_Methylthiophene_Hydrogenated_Improper_Alternate.qcin
output file: 
nprocs     : 0
nthreads   : 1
#
# qchem installation setting
#
QC:          /cm/shared/apps/spack/cpu/opt/spack/linux-centos8-zen2/gcc-10.2.0/qchem-5.4-akfmr7b3t57bfs6qan3padb2wnb2i7cl
QCAUX:       /cm/shared/apps/spack/cpu/opt/spack/linux-centos8-zen2/gcc-10.2.0/qchem-5.4-akfmr7b3t57bfs6qan3padb2wnb2i7cl/qcaux
QCPROG:      /cm/shared/apps/spack/cpu/opt/spack/linux-centos8-zen2/gcc-10.2.0/qchem-5.4-akfmr7b3t57bfs6qan3padb2wnb2i7cl/exe/qcprog.exe_s
QCPROG_S:    /cm/shared/apps/spack/cpu/opt/spack/linux-centos8-zen2/gcc-10.2.0/qchem-5.4-akfmr7b3t57bfs6qan3padb2wnb2i7cl/exe/qcprog.exe_s
PARALLEL:    -DSERIAL
QCMPI:       mpich
#
# qchem directory setting
#
qcrun:       qchem2193253
QCSCRATCH:   .
QCLOCALSCR:  
QCTMPDIR:    .
QCFILEPREF:  ./qchem2193253
QCSAVEDIR:   
workdirs:    ./qchem2193253
workdir0:    ./qchem2193253
partmpdirs =  
#
# parallel setting
#
QCRSH:           ssh
QCMPI:           mpich
QCMPIRUN:        /cm/shared/apps/spack/cpu/opt/spack/linux-centos8-zen2/gcc-10.2.0/qchem-5.4-akfmr7b3t57bfs6qan3padb2wnb2i7cl/bin/mpi/mpirun_qchem
QCMACHINEFILE:   ./qchem2193253/hostfile

#
# env setting
#
exported envs:   QC QCAUX QCSCRATCH QCRUNNAME QCFILEPREF QCPROG QCPROG_S GUIFILE

Running Job 1 of 1 Methylthiophene_Phi_5_Theta_240_Methylthiophene_Hydrogenated_Improper_Alternate.qcin
qchem Methylthiophene_Phi_5_Theta_240_Methylthiophene_Hydrogenated_Improper_Alternate.qcin_2193253.0 ./qchem2193253/ 0
/cm/shared/apps/spack/cpu/opt/spack/linux-centos8-zen2/gcc-10.2.0/qchem-5.4-akfmr7b3t57bfs6qan3padb2wnb2i7cl/exe/qcprog.exe_s Methylthiophene_Phi_5_Theta_240_Methylthiophene_Hydrogenated_Improper_Alternate.qcin_2193253.0 ./qchem2193253/
                  Welcome to Q-Chem
     A Quantum Leap Into The Future Of Chemistry


 Q-Chem 5.4, Q-Chem, Inc., Pleasanton, CA (2021)

 License issued to: University of California, San Diego (site)

 E. Epifanovsky,  A. T. B. Gilbert,  Xintian Feng,  Joonho Lee,  Yuezhi Mao,  
 N. Mardirossian,  P. Pokhilko,  A. White,  M. Wormit,  M. P. Coons,  
 A. L. Dempwolff,  Zhengting Gan,  D. Hait,  P. R. Horn,  L. D. Jacobson,  
 I. Kaliman,  J. Kussmann,  A. W. Lange,  Ka Un Lao,  D. S. Levine,  Jie Liu,  
 S. C. McKenzie,  A. F. Morrison,  K. Nanda,  F. Plasser,  D. R. Rehn,  
 M. L. Vidal,  Zhi-Qiang You,  Ying Zhu,  B. Alam,  B. Albrecht,  
 A. Aldossary,  E. Alguire,  J. H. Andersen,  D. Barton,  K. Begam,  A. Behn,  
 Y. A. Bernard,  E. J. Berquist,  H. Burton,  A. Carreras,  K. Carter-Fenk,  
 R. Chakraborty,  A. D. Chien,  K. D. Closser,  V. Cofer-Shabica,  
 S. Dasgupta,  Jia Deng,  M. de Wergifosse,  M. Diedenhofen,  Hainam Do,  
 S. Ehlert,  Po-Tung Fang,  S. Fatehi,  Qingguo Feng,  J. Gayvert,  
 Qinghui Ge,  G. Gidofalvi,  M. Goldey,  J. Gomes,  C. Gonzalez-Espinoza,  
 S. Gulania,  A. Gunina,  M. W. D. Hanson-Heine,  P. H. P. Harbach,  
 A. W. Hauser,  M. F. Herbst,  M. Hernandez Vera,  M. Hodecker,  
 Z. C. Holden,  S. Houck,  Xunkun Huang,  Kerwin Hui,  B. C. Huynh,  
 M. Ivanov,  Hyunjun Ji,  Hanjie Jiang,  B. Kaduk,  S. Kaehler,  
 K. Khistyaev,  Jaehoon Kim,  P. Klunzinger,  Z. Koczor-Benda,  
 Joong Hoon Koh,  D. Kosenkov,  L. Koulias,  T. Kowalczyk,  C. M. Krauter,  
 K. Kue,  A. Kunitsa,  T. Kus,  A. Landau,  K. V. Lawler,  D. Lefrancois,  
 S. Lehtola,  Rain Li,  Yi-Pei Li,  Jiashu Liang,  M. Liebenthal,  
 Hung-Hsuan Lin,  You-Sheng Lin,  Fenglai Liu,  Kuan-Yu Liu,  
 M. Loipersberger,  A. Luenser,  A. Manjanath,  P. Manohar,  E. Mansoor,  
 S. F. Manzer,  Shan-Ping Mao,  A. V. Marenich,  T. Markovich,  S. Mason,  
 S. A. Maurer,  P. F. McLaughlin,  M. F. S. J. Menger,  J.-M. Mewes,  
 S. A. Mewes,  P. Morgante,  J. W. Mullinax,  T. S. Nguyen-Beck,  
 K. J. Oosterbaan,  G. Paran,  Alexander C. Paul,  Suranjan K. Paul,  
 F. Pavosevic,  Zheng Pei,  S. Prager,  E. I. Proynov,  E. Ramos,  B. Rana,  
 A. E. Rask,  A. Rettig,  R. M. Richard,  F. Rob,  E. Rossomme,  T. Scheele,  
 M. Scheurer,  M. Schneider,  N. Sergueev,  S. M. Sharada,  W. Skomorowski,  
 D. W. Small,  C. J. Stein,  Yu-Chuan Su,  E. J. Sundstrom,  Zhen Tao,  
 J. Thirman,  T. Tsuchimochi,  N. M. Tubman,  S. P. Veccham,  O. Vydrov,  
 J. Wenzel,  J. Witte,  A. Yamada,  Kun Yao,  S. Yeganeh,  S. R. Yost,  
 A. Zech,  Igor Ying Zhang,  Xing Zhang,  Yu Zhang,  D. Zuev,  
 A. Aspuru-Guzik,  A. T. Bell,  N. A. Besley,  K. B. Bravaya,  B. R. Brooks,  
 D. Casanova,  Jeng-Da Chai,  S. Coriani,  C. J. Cramer,  
 A. E. DePrince, III,  R. A. DiStasio Jr.,  A. Dreuw,  B. D. Dunietz,  
 T. R. Furlani,  W. A. Goddard III,  S. Grimme,  S. Hammes-Schiffer,  
 T. Head-Gordon,  W. J. Hehre,  Chao-Ping Hsu,  T.-C. Jagau,  Yousung Jung,  
 A. Klamt,  Jing Kong,  D. S. Lambrecht,  WanZhen Liang,  N. J. Mayhall,  
 C. W. McCurdy,  J. B. Neaton,  C. Ochsenfeld,  J. A. Parkhill,  R. Peverati,  
 V. A. Rassolov,  Yihan Shao,  L. V. Slipchenko,  T. Stauch,  R. P. Steele,  
 J. E. Subotnik,  A. J. W. Thom,  A. Tkatchenko,  D. G. Truhlar,  
 T. Van Voorhis,  T. A. Wesolowski,  K. B. Whaley,  H. L. Woodcock III,  
 P. M. Zimmerman,  S. Faraji,  P. M. W. Gill,  M. Head-Gordon,  
 J. M. Herbert,  A. I. Krylov

 Contributors to earlier versions of Q-Chem not listed above: 
 R. D. Adamson,  B. Austin,  R. Baer,  J. Baker,  G. J. O. Beran,  
 K. Brandhorst,  S. T. Brown,  E. F. C. Byrd,  A. K. Chakraborty,  
 G. K. L. Chan,  Chun-Min Chang,  Yunqing Chen,  C.-L. Cheng,  
 Siu Hung Chien,  D. M. Chipman,  D. L. Crittenden,  H. Dachsel,  
 R. J. Doerksen,  A. D. Dutoi,  R. G. Edgar,  J. Fosso-Tande,  
 L. Fusti-Molnar,  D. Ghosh,  A. Ghysels,  A. Golubeva-Zadorozhnaya,  
 J. Gonthier,  M. S. Gordon,  S. R. Gwaltney,  G. Hawkins,  J. E. Herr,  
 A. Heyden,  S. Hirata,  E. G. Hohenstein,  G. Kedziora,  F. J. Keil,  
 C. Kelley,  Jihan Kim,  R. A. King,  R. Z. Khaliullin,  P. P. Korambath,  
 W. Kurlancheek,  A. Laurent,  A. M. Lee,  M. S. Lee,  S. V. Levchenko,  
 Ching Yeh Lin,  D. Liotard,  E. Livshits,  R. C. Lochan,  I. Lotan,  
 L. A. Martinez-Martinez,  P. E. Maslen,  N. Nair,  D. P. O'Neill,  
 D. Neuhauser,  E. Neuscamman,  C. M. Oana,  R. Olivares-Amaya,  R. Olson,  
 T. M. Perrine,  B. Peters,  P. A. Pieniazek,  A. Prociuk,  Y. M. Rhee,  
 J. Ritchie,  M. A. Rohrdanz,  E. Rosta,  N. J. Russ,  H. F. Schaefer III,  
 M. W. Schmidt,  N. E. Schultz,  S. Sharma,  N. Shenvi,  C. D. Sherrill,  
 A. C. Simmonett,  A. Sodt,  T. Stein,  D. Stuck,  K. S. Thanthiriwatte,  
 V. Vanovschi,  L. Vogt,  Tao Wang,  A. Warshel,  M. A. Watson,  
 C. F. Williams,  Q. Wu,  X. Xu,  Jun Yang,  W. Zhang,  Yan Zhao

 Please cite Q-Chem as follows:
 Y. Shao et al., Mol. Phys. 113, 184-215 (2015)
 DOI: 10.1080/00268976.2014.952696

 Q-Chem 5.4.0 for Intel X86 EM64T Linux

 Parts of Q-Chem use Armadillo 9.800.1 (Horizon Scraper).
 http://arma.sourceforge.net/

 Q-Chem begins on Sun Jul 10 10:48:43 2022  

 Host: 
0

     Scratch files written to ./qchem2193253//
 May1621 |scratch|qcdevops|jenkins|workspace|build_RNUM    
 Processing $rem in /cm/shared/apps/spack/cpu/opt/spack/linux-centos8-zen2/gcc-10.2.0/qchem-5.4-akfmr7b3t57bfs6qan3padb2wnb2i7cl/config/preferences:
 Processing $rem in /home/theleonzhang/.qchemrc:
 Symmetry turned off for PCM/SM12/SMD calculation
 Core orbitals will be frozen

 Checking the input file for inconsistencies... 	...done.

--------------------------------------------------------------
User input:
--------------------------------------------------------------
$molecule
0 1
C	-0.057217	-0.573727	0.019522
C	0.018083	0.286573	1.118922
C	0.138683	1.665273	0.796222
H	-0.014017	-0.080827	2.155622
C	0.157983	1.885073	-0.592978
S	0.024983	0.365073	-1.467278
C	0.233583	2.748873	1.834122
H	0.196483	2.324773	2.856222
H	-0.598417	3.478373	1.745722
H	1.179583	3.322873	1.745722
C	-0.057217	-2.014427	0.019522
H	-0.597117	-2.014627	-0.915878
H	-0.766717	-2.718227	0.429022
H	0.762983	-2.533327	-0.454078
H	0.240683	2.830673	-1.142078
$end

$rem
JOBTYPE		SP
EXCHANGE	HF
CORRELATION	pRIMP2
BASIS		cc-pvtz
METHOD		rimp2
AUX_BASIS	rimp2-cc-pvtz
SOLVENT_METHOD	PCM
PURECART	11111
SYMMETRY	false
MEM_TOTAL	110000
SCF_CONVERGENCE = 6
THRESH=10
$end



$solvent
dielectric 4.90
$end
--------------------------------------------------------------
 ----------------------------------------------------------------
             Standard Nuclear Orientation (Angstroms)
    I     Atom           X                Y                Z
 ----------------------------------------------------------------
    1      C      -0.0572170000    -0.5737270000     0.0195220000
    2      C       0.0180830000     0.2865730000     1.1189220000
    3      C       0.1386830000     1.6652730000     0.7962220000
    4      H      -0.0140170000    -0.0808270000     2.1556220000
    5      C       0.1579830000     1.8850730000    -0.5929780000
    6      S       0.0249830000     0.3650730000    -1.4672780000
    7      C       0.2335830000     2.7488730000     1.8341220000
    8      H       0.1964830000     2.3247730000     2.8562220000
    9      H      -0.5984170000     3.4783730000     1.7457220000
   10      H       1.1795830000     3.3228730000     1.7457220000
   11      C      -0.0572170000    -2.0144270000     0.0195220000
   12      H      -0.5971170000    -2.0146270000    -0.9158780000
   13      H      -0.7667170000    -2.7182270000     0.4290220000
   14      H       0.7629830000    -2.5333270000    -0.4540780000
   15      H       0.2406830000     2.8306730000    -1.1420780000
 ----------------------------------------------------------------
 Nuclear Repulsion Energy =         344.66869122 hartrees
 There are       30 alpha and       30 beta electrons

 Q-Chem warning in module forms1/BasisType.C, line 2236:

 You are not using the predefined 5D/6D in this basis set.

 Requested basis set is cc-pVTZ
 There are 120 shells and 326 basis functions

 Total QAlloc Memory Limit 110000 MB
 Mega-Array Size       188 MB
 MEM_STATIC part       192 MB
 Discretize the solute cavity surface with Lebedev spheres
	Using 110 Lebedev grid points for each H atom
	Using 194 Lebedev grid points for other atoms
	Atomic van der Waals radii will be scaled by 1.20
 Remove points where switching function is < 1.0e-08
 Keep 1069 surface tesserae and discard 1169 interior tesserae
 Molecular Surface Area = 158.599 Angst**2

                       Distance Matrix (Angstroms)
             C (  1)   C (  2)   C (  3)   H (  4)   C (  5)   S (  6)
   C (  2)  1.398022
   C (  3)  2.377974  1.421089
   H (  4)  2.192656  1.100345  2.218141
   C (  5)  2.543062  2.346354  1.406613  3.383659
   S (  6)  1.760306  2.587400  2.612830  3.650445  1.758548
   C (  7)  3.796974  2.573106  1.503473  2.858648  2.577340  4.077408
   H (  8)  4.063562  2.684082  2.163765  2.514371  3.477326  4.749999
   H (  9)  4.437587  3.310670  2.175362  3.630075  2.929209  4.517149
   H ( 10)  4.437672  3.310752  2.175468  3.630134  2.929241  4.517195
   C ( 11)  1.440700  2.551265  3.765877  2.881597  3.953172  2.807018
   H ( 12)  1.800738  3.132795  4.124846  3.676099  3.985235  2.520719
   H ( 13)  2.295640  3.181304  4.491064  3.240923  4.805198  3.705331
   H ( 14)  2.176478  3.313765  4.425070  3.664563  4.461791  3.157838
   H ( 15)  3.609432  3.410882  2.263972  4.406419  1.096590  2.496290
             C (  7)   H (  8)   H (  9)   H ( 10)   C ( 11)   H ( 12)
   H (  8)  1.107215
   H (  9)  1.110049  1.787699
   H ( 10)  1.110048  1.787708  1.784787
   C ( 11)  5.105523  5.190365  5.783037  5.744233
   H ( 12)  5.562688  5.804217  6.103865  6.223318  1.080030
   H ( 13)  5.732721  5.678988  6.337182  6.482027  1.080007  1.527276
   H ( 14)  5.780810  5.905941  6.544698  6.269590  1.079945  1.527148
   H ( 15)  2.977332  4.030421  3.076198  3.076229  4.991298  4.922399
             H ( 13)   H ( 14)
   H ( 14)  1.775961
   H ( 15)  5.854357  5.433106
 
 Requested basis set is rimp2-cc-pVTZ
 There are 250 shells and 848 basis functions
 A cutoff of  1.0D-10 yielded   6161 shell pairs
 There are     45117 function pairs (     58018 Cartesian)
 Smallest overlap matrix eigenvalue = 9.67E-05

 Scale SEOQF with 1.000000e+00/1.000000e-01/1.000000e-01

 Standard Electronic Orientation quadrupole field applied
 Nucleus-field energy     =     0.0000000038 hartrees
 Guess from superposition of atomic densities
 Warning:  Energy on first SCF cycle will be non-variational
 SAD guess density has 60.000000 electrons

 -----------------------------------------------------------------------
  General SCF calculation program by
  Eric Jon Sundstrom, Paul Horn, Yuezhi Mao, Dmitri Zuev, Alec White,
  David Stuck, Shaama M.S., Shane Yost, Joonho Lee, David Small,
  Daniel Levine, Susi Lehtola, Hugh Burton, Evgeny Epifanovsky,
  Bang C. Huynh
 -----------------------------------------------------------------------
 Hartree-Fock
 A restricted SCF calculation will be
 performed using DIIS
 SCF converges when DIIS error is below 1.0e-06
 ---------------------------------------
  Cycle       Energy         DIIS error
 ---------------------------------------
    1    -632.1047034046      2.92e-02  
    2    -629.3405153788      1.94e-03  
    3    -629.4110859238      6.92e-04  
    4    -629.4187362241      3.48e-04  
    5    -629.4208951936      6.43e-05  
    6    -629.4210325151      2.65e-05  
    7    -629.4210672215      1.16e-05  
    8    -629.4210767795      5.07e-06  
    9    -629.4210782293      1.73e-06  
   10    -629.4210784080      5.77e-07  Convergence criterion met
 ---------------------------------------
 SCF time:   CPU 143.98s  wall 144.00s 

************** Final PCM Free Energy Summary **************
 G_electrostatic  =      -0.00521413 hartree =      -3.27191565 kcal/mol
 G_cavitation     =       0.00000000 hartree =       0.00000000 kcal/mol
 G_dispersion     =       0.00000000 hartree =       0.00000000 kcal/mol
 G_repulsion      =       0.00000000 hartree =       0.00000000 kcal/mol
 --------------------------------------------------
 Non-electrostatic Free Energy =       0.00000000 hartree =       0.00000000 kcal/mol
 Total                         =      -0.00521413 hartree =      -3.27191565 kcal/mol
 --------------------------------------------------
 SCF Energy (H0 + V/2)                       =    -629.42107841 
 Solute Internal Energy (H0)                 =    -629.41586428 
 Total Free Energy (H0 + V/2 + non-elec)     =    -629.42107841 hartree
                                             = -394967.68794808 kcal/mol
***********************************************************

 SCF   energy in the final basis set =     -629.4210784080
 Total energy in the final basis set =     -629.4210784080


 --------------------------------------------------------------
  Generalized many-body perturbation theory program
  by Joonho Lee, Fazle Rob, Xintian Feng, Evgeny Epifanovsky

 No regularization used 
 (reg. param. = 0.0000e+00)
  (P|Q)^-1/2 Time:  CPU 0.51 s  wall 0.51 s

 In RI-MP2 calculation: 
 # of frozen core orbitals: 11

 Components of the RIMP2 correlation energy:
        aaaa    correlation energy =        -0.1453971639 a.u.
        abab    correlation energy =        -0.8862751926 a.u.
        bbbb    correlation energy =        -0.1453971639 a.u.
        non-Brillouin singles      =        -0.0000000000 a.u.
        total same-spin energy     =        -0.2907943278 a.u.
        total opposite-spin energy =        -0.8862751926 a.u.

 Total  RIMP2   correlation energy =        -1.1770695205 a.u.
        RIMP2         total energy =      -630.5981479285 a.u.

 RI-MP2 Energy Time:  CPU 12.63 s  wall 12.65 s
 
 --------------------------------------------------------------
 
                    Orbital Energies (a.u.)
 --------------------------------------------------------------
 
 Alpha MOs
 -- Occupied --
-91.9801 -11.2773 -11.2561 -11.2469 -11.2276 -11.2267 -11.2171  -8.9799
 -6.6609  -6.6604  -6.6597  -1.1607  -1.0553  -0.9955  -0.9459  -0.8817
 -0.7471  -0.7184  -0.6484  -0.5910  -0.5751  -0.5655  -0.5537  -0.5473
 -0.5086  -0.4873  -0.4650  -0.4482  -0.3389  -0.2995
 -- Virtual --
  0.1055   0.1421   0.1497   0.1748   0.1887   0.1918   0.2002   0.2285
  0.2374   0.2422   0.2477   0.2681   0.2890   0.3223   0.3414   0.3489
  0.3787   0.3961   0.4028   0.4176   0.4387   0.4682   0.4709   0.4852
  0.4915   0.4982   0.5223   0.5291   0.5389   0.5605   0.5864   0.5992
  0.6006   0.6071   0.6108   0.6150   0.6306   0.6391   0.6438   0.6495
  0.6563   0.6687   0.6902   0.7111   0.7369   0.7419   0.7654   0.7842
  0.8007   0.8261   0.8423   0.8543   0.8720   0.8959   0.9224   0.9281
  0.9421   0.9622   0.9757   1.0075   1.0386   1.0446   1.0661   1.0754
  1.0821   1.0833   1.1057   1.1471   1.1647   1.1774   1.1998   1.2136
  1.2284   1.2444   1.2508   1.2622   1.2671   1.2887   1.3065   1.3257
  1.3589   1.3835   1.3928   1.4110   1.4261   1.4387   1.4554   1.4791
  1.4995   1.5164   1.5350   1.5375   1.5529   1.5563   1.5761   1.5857
  1.6136   1.6282   1.6498   1.6741   1.6845   1.6940   1.7112   1.7431
  1.7600   1.7841   1.8242   1.8342   1.8875   1.9069   1.9136   1.9661
  2.0026   2.0443   2.0906   2.1321   2.1837   2.1974   2.2188   2.2445
  2.2607   2.2931   2.3541   2.4178   2.4575   2.5020   2.5263   2.5513
  2.5678   2.6086   2.6282   2.6601   2.6843   2.7022   2.7043   2.7402
  2.7510   2.7609   2.7651   2.7928   2.8071   2.8387   2.8490   2.8819
  2.9119   2.9307   2.9517   2.9816   2.9962   3.0151   3.0469   3.0586
  3.0862   3.1140   3.1152   3.1319   3.1480   3.1603   3.1687   3.2025
  3.2286   3.2414   3.2560   3.2762   3.2840   3.2970   3.3120   3.3257
  3.3403   3.3655   3.3727   3.3867   3.3974   3.4236   3.4278   3.4340
  3.4552   3.4711   3.4940   3.4997   3.5136   3.5190   3.5307   3.5738
  3.5851   3.5944   3.6101   3.6212   3.6237   3.6329   3.6589   3.6750
  3.6947   3.7060   3.7184   3.7476   3.7628   3.7867   3.7909   3.8023
  3.8071   3.8299   3.8702   3.8881   3.9135   3.9213   3.9344   3.9572
  3.9694   3.9902   4.0073   4.0269   4.0366   4.0499   4.0856   4.1042
  4.1212   4.1507   4.1581   4.1757   4.1903   4.2236   4.2415   4.2475
  4.2849   4.2899   4.3045   4.3329   4.3410   4.3533   4.3951   4.4025
  4.4125   4.4247   4.4500   4.4554   4.4687   4.4913   4.5415   4.5514
  4.5925   4.6142   4.6466   4.6648   4.7119   4.7289   4.7633   4.7881
  4.8021   4.8260   4.8518   4.8922   4.9336   4.9778   5.0724   5.1028
  5.1053   5.1643   5.1927   5.1985   5.2557   5.2729   5.2905   5.3203
  5.3663   5.4052   5.4171   5.4414   5.4795   5.4991   5.5527   5.5652
  5.5921   5.6168   5.6232   5.6967   5.7317   5.8311   5.8383   5.8731
  5.8976   6.0215   6.0430   6.1305   6.2274   6.2547   6.3140   6.3539
  6.4579   6.5050   9.1750  11.4454  12.9450  13.9200  14.1895  14.4720
 --------------------------------------------------------------
 
          Ground-State Mulliken Net Atomic Charges

     Atom                 Charge (a.u.)
  ----------------------------------------
      1 C                     0.050036
      2 C                    -0.268117
      3 C                     0.038087
      4 H                     0.180447
      5 C                    -0.258590
      6 S                    -0.003162
      7 C                    -0.273588
      8 H                     0.101694
      9 H                     0.106922
     10 H                     0.107080
     11 C                    -0.372255
     12 H                     0.116282
     13 H                     0.155020
     14 H                     0.125350
     15 H                     0.194796
  ----------------------------------------
  Sum of atomic charges =     0.000000

 -----------------------------------------------------------------
                    Cartesian Multipole Moments
 -----------------------------------------------------------------
    Charge (ESU x 10^10)
                -0.0000
    Dipole Moment (Debye)
         X      -0.1917      Y      -0.1284      Z       0.8981
       Tot       0.9272
    Quadrupole Moments (Debye-Ang)
        XX     -53.7706     XY       1.6202     YY     -42.1020
        XZ      -0.2310     YZ       1.3046     ZZ     -48.7937
    Octopole Moments (Debye-Ang^2)
       XXX      -9.2894    XXY     -32.2895    XYY      -3.5329
       YYY     -79.2071    XXZ      -1.6810    XYZ       0.7470
       YYZ      -6.6717    XZZ      -2.5025    YZZ     -23.7407
       ZZZ       2.1173
    Hexadecapole Moments (Debye-Ang^3)
      XXXX     -83.4171   XXXY     -29.5984   XXYY    -157.6969
      XYYY     -18.2894   YYYY    -808.4250   XXXZ      -8.1660
      XXYZ     -31.3440   XYYZ      -6.9701   YYYZ    -103.7815
      XXZZ    -102.0572   XYZZ      -8.2461   YYZZ    -215.7726
      XZZZ      -8.3527   YZZZ    -104.4698   ZZZZ    -482.5793
 -----------------------------------------------------------------
 Total job time:  157.89s(wall), 156.98s(cpu) 
 Sun Jul 10 10:51:21 2022

        *************************************************************
        *                                                           *
        *  Thank you very much for using Q-Chem.  Have a nice day.  *
        *                                                           *
        *************************************************************


remove work dirs ./qchem2193253.0 -- ./qchem2193253.-1
rm -rf ./qchem2193253
