You are running Q-Chem version: 5.4.0

#
# job setting
#
local host:  exp-1-46
current dir: /expanse/lustre/scratch/theleonzhang/temp_project/Hydrogenated_Impropers_Test
input file:  Methylthiophene_Phi_5_Theta_150_Methylthiophene_Hydrogenated_Improper.qcin
output file: 
nprocs     : 0
nthreads   : 1
#
# qchem installation setting
#
QC:          /cm/shared/apps/spack/cpu/opt/spack/linux-centos8-zen2/gcc-10.2.0/qchem-5.4-akfmr7b3t57bfs6qan3padb2wnb2i7cl
QCAUX:       /cm/shared/apps/spack/cpu/opt/spack/linux-centos8-zen2/gcc-10.2.0/qchem-5.4-akfmr7b3t57bfs6qan3padb2wnb2i7cl/qcaux
QCPROG:      /cm/shared/apps/spack/cpu/opt/spack/linux-centos8-zen2/gcc-10.2.0/qchem-5.4-akfmr7b3t57bfs6qan3padb2wnb2i7cl/exe/qcprog.exe_s
QCPROG_S:    /cm/shared/apps/spack/cpu/opt/spack/linux-centos8-zen2/gcc-10.2.0/qchem-5.4-akfmr7b3t57bfs6qan3padb2wnb2i7cl/exe/qcprog.exe_s
PARALLEL:    -DSERIAL
QCMPI:       mpich
#
# qchem directory setting
#
qcrun:       qchem4182437
QCSCRATCH:   .
QCLOCALSCR:  
QCTMPDIR:    .
QCFILEPREF:  ./qchem4182437
QCSAVEDIR:   
workdirs:    ./qchem4182437
workdir0:    ./qchem4182437
partmpdirs =  
#
# parallel setting
#
QCRSH:           ssh
QCMPI:           mpich
QCMPIRUN:        /cm/shared/apps/spack/cpu/opt/spack/linux-centos8-zen2/gcc-10.2.0/qchem-5.4-akfmr7b3t57bfs6qan3padb2wnb2i7cl/bin/mpi/mpirun_qchem
QCMACHINEFILE:   ./qchem4182437/hostfile

#
# env setting
#
exported envs:   QC QCAUX QCSCRATCH QCRUNNAME QCFILEPREF QCPROG QCPROG_S GUIFILE

Running Job 1 of 1 Methylthiophene_Phi_5_Theta_150_Methylthiophene_Hydrogenated_Improper.qcin
qchem Methylthiophene_Phi_5_Theta_150_Methylthiophene_Hydrogenated_Improper.qcin_4182437.0 ./qchem4182437/ 0
/cm/shared/apps/spack/cpu/opt/spack/linux-centos8-zen2/gcc-10.2.0/qchem-5.4-akfmr7b3t57bfs6qan3padb2wnb2i7cl/exe/qcprog.exe_s Methylthiophene_Phi_5_Theta_150_Methylthiophene_Hydrogenated_Improper.qcin_4182437.0 ./qchem4182437/
                  Welcome to Q-Chem
     A Quantum Leap Into The Future Of Chemistry


 Q-Chem 5.4, Q-Chem, Inc., Pleasanton, CA (2021)

 License issued to: University of California, San Diego (site)

 E. Epifanovsky,  A. T. B. Gilbert,  Xintian Feng,  Joonho Lee,  Yuezhi Mao,  
 N. Mardirossian,  P. Pokhilko,  A. White,  M. Wormit,  M. P. Coons,  
 A. L. Dempwolff,  Zhengting Gan,  D. Hait,  P. R. Horn,  L. D. Jacobson,  
 I. Kaliman,  J. Kussmann,  A. W. Lange,  Ka Un Lao,  D. S. Levine,  Jie Liu,  
 S. C. McKenzie,  A. F. Morrison,  K. Nanda,  F. Plasser,  D. R. Rehn,  
 M. L. Vidal,  Zhi-Qiang You,  Ying Zhu,  B. Alam,  B. Albrecht,  
 A. Aldossary,  E. Alguire,  J. H. Andersen,  D. Barton,  K. Begam,  A. Behn,  
 Y. A. Bernard,  E. J. Berquist,  H. Burton,  A. Carreras,  K. Carter-Fenk,  
 R. Chakraborty,  A. D. Chien,  K. D. Closser,  V. Cofer-Shabica,  
 S. Dasgupta,  Jia Deng,  M. de Wergifosse,  M. Diedenhofen,  Hainam Do,  
 S. Ehlert,  Po-Tung Fang,  S. Fatehi,  Qingguo Feng,  J. Gayvert,  
 Qinghui Ge,  G. Gidofalvi,  M. Goldey,  J. Gomes,  C. Gonzalez-Espinoza,  
 S. Gulania,  A. Gunina,  M. W. D. Hanson-Heine,  P. H. P. Harbach,  
 A. W. Hauser,  M. F. Herbst,  M. Hernandez Vera,  M. Hodecker,  
 Z. C. Holden,  S. Houck,  Xunkun Huang,  Kerwin Hui,  B. C. Huynh,  
 M. Ivanov,  Hyunjun Ji,  Hanjie Jiang,  B. Kaduk,  S. Kaehler,  
 K. Khistyaev,  Jaehoon Kim,  P. Klunzinger,  Z. Koczor-Benda,  
 Joong Hoon Koh,  D. Kosenkov,  L. Koulias,  T. Kowalczyk,  C. M. Krauter,  
 K. Kue,  A. Kunitsa,  T. Kus,  A. Landau,  K. V. Lawler,  D. Lefrancois,  
 S. Lehtola,  Rain Li,  Yi-Pei Li,  Jiashu Liang,  M. Liebenthal,  
 Hung-Hsuan Lin,  You-Sheng Lin,  Fenglai Liu,  Kuan-Yu Liu,  
 M. Loipersberger,  A. Luenser,  A. Manjanath,  P. Manohar,  E. Mansoor,  
 S. F. Manzer,  Shan-Ping Mao,  A. V. Marenich,  T. Markovich,  S. Mason,  
 S. A. Maurer,  P. F. McLaughlin,  M. F. S. J. Menger,  J.-M. Mewes,  
 S. A. Mewes,  P. Morgante,  J. W. Mullinax,  T. S. Nguyen-Beck,  
 K. J. Oosterbaan,  G. Paran,  Alexander C. Paul,  Suranjan K. Paul,  
 F. Pavosevic,  Zheng Pei,  S. Prager,  E. I. Proynov,  E. Ramos,  B. Rana,  
 A. E. Rask,  A. Rettig,  R. M. Richard,  F. Rob,  E. Rossomme,  T. Scheele,  
 M. Scheurer,  M. Schneider,  N. Sergueev,  S. M. Sharada,  W. Skomorowski,  
 D. W. Small,  C. J. Stein,  Yu-Chuan Su,  E. J. Sundstrom,  Zhen Tao,  
 J. Thirman,  T. Tsuchimochi,  N. M. Tubman,  S. P. Veccham,  O. Vydrov,  
 J. Wenzel,  J. Witte,  A. Yamada,  Kun Yao,  S. Yeganeh,  S. R. Yost,  
 A. Zech,  Igor Ying Zhang,  Xing Zhang,  Yu Zhang,  D. Zuev,  
 A. Aspuru-Guzik,  A. T. Bell,  N. A. Besley,  K. B. Bravaya,  B. R. Brooks,  
 D. Casanova,  Jeng-Da Chai,  S. Coriani,  C. J. Cramer,  
 A. E. DePrince, III,  R. A. DiStasio Jr.,  A. Dreuw,  B. D. Dunietz,  
 T. R. Furlani,  W. A. Goddard III,  S. Grimme,  S. Hammes-Schiffer,  
 T. Head-Gordon,  W. J. Hehre,  Chao-Ping Hsu,  T.-C. Jagau,  Yousung Jung,  
 A. Klamt,  Jing Kong,  D. S. Lambrecht,  WanZhen Liang,  N. J. Mayhall,  
 C. W. McCurdy,  J. B. Neaton,  C. Ochsenfeld,  J. A. Parkhill,  R. Peverati,  
 V. A. Rassolov,  Yihan Shao,  L. V. Slipchenko,  T. Stauch,  R. P. Steele,  
 J. E. Subotnik,  A. J. W. Thom,  A. Tkatchenko,  D. G. Truhlar,  
 T. Van Voorhis,  T. A. Wesolowski,  K. B. Whaley,  H. L. Woodcock III,  
 P. M. Zimmerman,  S. Faraji,  P. M. W. Gill,  M. Head-Gordon,  
 J. M. Herbert,  A. I. Krylov

 Contributors to earlier versions of Q-Chem not listed above: 
 R. D. Adamson,  B. Austin,  R. Baer,  J. Baker,  G. J. O. Beran,  
 K. Brandhorst,  S. T. Brown,  E. F. C. Byrd,  A. K. Chakraborty,  
 G. K. L. Chan,  Chun-Min Chang,  Yunqing Chen,  C.-L. Cheng,  
 Siu Hung Chien,  D. M. Chipman,  D. L. Crittenden,  H. Dachsel,  
 R. J. Doerksen,  A. D. Dutoi,  R. G. Edgar,  J. Fosso-Tande,  
 L. Fusti-Molnar,  D. Ghosh,  A. Ghysels,  A. Golubeva-Zadorozhnaya,  
 J. Gonthier,  M. S. Gordon,  S. R. Gwaltney,  G. Hawkins,  J. E. Herr,  
 A. Heyden,  S. Hirata,  E. G. Hohenstein,  G. Kedziora,  F. J. Keil,  
 C. Kelley,  Jihan Kim,  R. A. King,  R. Z. Khaliullin,  P. P. Korambath,  
 W. Kurlancheek,  A. Laurent,  A. M. Lee,  M. S. Lee,  S. V. Levchenko,  
 Ching Yeh Lin,  D. Liotard,  E. Livshits,  R. C. Lochan,  I. Lotan,  
 L. A. Martinez-Martinez,  P. E. Maslen,  N. Nair,  D. P. O'Neill,  
 D. Neuhauser,  E. Neuscamman,  C. M. Oana,  R. Olivares-Amaya,  R. Olson,  
 T. M. Perrine,  B. Peters,  P. A. Pieniazek,  A. Prociuk,  Y. M. Rhee,  
 J. Ritchie,  M. A. Rohrdanz,  E. Rosta,  N. J. Russ,  H. F. Schaefer III,  
 M. W. Schmidt,  N. E. Schultz,  S. Sharma,  N. Shenvi,  C. D. Sherrill,  
 A. C. Simmonett,  A. Sodt,  T. Stein,  D. Stuck,  K. S. Thanthiriwatte,  
 V. Vanovschi,  L. Vogt,  Tao Wang,  A. Warshel,  M. A. Watson,  
 C. F. Williams,  Q. Wu,  X. Xu,  Jun Yang,  W. Zhang,  Yan Zhao

 Please cite Q-Chem as follows:
 Y. Shao et al., Mol. Phys. 113, 184-215 (2015)
 DOI: 10.1080/00268976.2014.952696

 Q-Chem 5.4.0 for Intel X86 EM64T Linux

 Parts of Q-Chem use Armadillo 9.800.1 (Horizon Scraper).
 http://arma.sourceforge.net/

 Q-Chem begins on Sun Jul 10 09:26:11 2022  

 Host: 
0

     Scratch files written to ./qchem4182437//
 May1621 |scratch|qcdevops|jenkins|workspace|build_RNUM    
 Processing $rem in /cm/shared/apps/spack/cpu/opt/spack/linux-centos8-zen2/gcc-10.2.0/qchem-5.4-akfmr7b3t57bfs6qan3padb2wnb2i7cl/config/preferences:
 Processing $rem in /home/theleonzhang/.qchemrc:
 Symmetry turned off for PCM/SM12/SMD calculation
 Core orbitals will be frozen

 Checking the input file for inconsistencies... 	...done.

--------------------------------------------------------------
User input:
--------------------------------------------------------------
$molecule
0 1
C	-0.054655	-0.573727	0.013104
C	0.020645	0.286573	1.112504
C	0.141245	1.665273	0.789804
H	-0.011455	-0.080827	2.149204
C	0.160545	1.885073	-0.599396
S	0.027545	0.365073	-1.473696
C	0.236145	2.748873	1.827704
H	0.199045	2.324773	2.849804
H	-0.595855	3.478373	1.739304
H	1.182145	3.322873	1.739304
C	-0.054655	-2.014427	0.013104
H	-0.990055	-2.014627	0.553004
H	0.354845	-2.718227	0.722604
H	-0.528255	-2.533327	-0.807096
H	0.243245	2.830673	-1.148496
$end

$rem
JOBTYPE		SP
EXCHANGE	HF
CORRELATION	pRIMP2
BASIS		cc-pvtz
METHOD		rimp2
AUX_BASIS	rimp2-cc-pvtz
SOLVENT_METHOD	PCM
PURECART	11111
SYMMETRY	false
MEM_TOTAL	110000
SCF_CONVERGENCE = 6
THRESH=10
$end



$solvent
dielectric 4.90
$end
--------------------------------------------------------------
 ----------------------------------------------------------------
             Standard Nuclear Orientation (Angstroms)
    I     Atom           X                Y                Z
 ----------------------------------------------------------------
    1      C      -0.0546550000    -0.5737270000     0.0131040000
    2      C       0.0206450000     0.2865730000     1.1125040000
    3      C       0.1412450000     1.6652730000     0.7898040000
    4      H      -0.0114550000    -0.0808270000     2.1492040000
    5      C       0.1605450000     1.8850730000    -0.5993960000
    6      S       0.0275450000     0.3650730000    -1.4736960000
    7      C       0.2361450000     2.7488730000     1.8277040000
    8      H       0.1990450000     2.3247730000     2.8498040000
    9      H      -0.5958550000     3.4783730000     1.7393040000
   10      H       1.1821450000     3.3228730000     1.7393040000
   11      C      -0.0546550000    -2.0144270000     0.0131040000
   12      H      -0.9900550000    -2.0146270000     0.5530040000
   13      H       0.3548450000    -2.7182270000     0.7226040000
   14      H      -0.5282550000    -2.5333270000    -0.8070960000
   15      H       0.2432450000     2.8306730000    -1.1484960000
 ----------------------------------------------------------------
 Nuclear Repulsion Energy =         344.30369329 hartrees
 There are       30 alpha and       30 beta electrons

 Q-Chem warning in module forms1/BasisType.C, line 2236:

 You are not using the predefined 5D/6D in this basis set.

 Requested basis set is cc-pVTZ
 There are 120 shells and 326 basis functions

 Total QAlloc Memory Limit 110000 MB
 Mega-Array Size       188 MB
 MEM_STATIC part       192 MB
 Discretize the solute cavity surface with Lebedev spheres
	Using 110 Lebedev grid points for each H atom
	Using 194 Lebedev grid points for other atoms
	Atomic van der Waals radii will be scaled by 1.20
 Remove points where switching function is < 1.0e-08
 Keep 1073 surface tesserae and discard 1165 interior tesserae
 Molecular Surface Area = 159.156 Angst**2

                       Distance Matrix (Angstroms)
             C (  1)   C (  2)   C (  3)   H (  4)   C (  5)   S (  6)
   C (  2)  1.398022
   C (  3)  2.377974  1.421089
   H (  4)  2.192656  1.100345  2.218141
   C (  5)  2.543062  2.346354  1.406613  3.383659
   S (  6)  1.760306  2.587400  2.612830  3.650445  1.758548
   C (  7)  3.796974  2.573106  1.503473  2.858648  2.577340  4.077408
   H (  8)  4.063562  2.684082  2.163765  2.514371  3.477326  4.749999
   H (  9)  4.437587  3.310670  2.175362  3.630075  2.929209  4.517149
   H ( 10)  4.437672  3.310752  2.175468  3.630134  2.929241  4.517195
   C ( 11)  1.440700  2.551265  3.765877  2.881597  3.953172  2.807018
   H ( 12)  1.800738  2.574893  3.857146  2.691671  4.226058  3.287247
   H ( 13)  2.295640  3.048366  4.389216  3.020802  4.793309  3.799684
   H ( 14)  2.176478  3.455140  4.541647  3.875764  4.476588  3.025556
   H ( 15)  3.609432  3.410882  2.263972  4.406419  1.096590  2.496290
             C (  7)   H (  8)   H (  9)   H ( 10)   C ( 11)   H ( 12)
   H (  8)  1.107215
   H (  9)  1.110049  1.787699
   H ( 10)  1.110048  1.787708  1.784787
   C ( 11)  5.105523  5.190365  5.783037  5.744233
   H ( 12)  5.081275  5.051697  5.633449  5.883423  1.080030
   H ( 13)  5.578935  5.475500  6.351013  6.181666  1.080007  1.527276
   H ( 14)  5.952152  6.123971  6.529109  6.610953  1.079945  1.527148
   H ( 15)  2.977332  4.030421  3.076198  3.076229  4.991298  5.281388
             H ( 13)   H ( 14)
   H ( 14)  1.775961
   H ( 15)  5.856941  5.429941
 
 Requested basis set is rimp2-cc-pVTZ
 There are 250 shells and 848 basis functions
 A cutoff of  1.0D-10 yielded   6167 shell pairs
 There are     45137 function pairs (     58035 Cartesian)
 Smallest overlap matrix eigenvalue = 8.28E-05

 Scale SEOQF with 1.000000e+00/1.000000e-01/1.000000e-01

 Standard Electronic Orientation quadrupole field applied
 Nucleus-field energy     =     0.0000000037 hartrees
 Guess from superposition of atomic densities
 Warning:  Energy on first SCF cycle will be non-variational
 SAD guess density has 60.000000 electrons

 -----------------------------------------------------------------------
  General SCF calculation program by
  Eric Jon Sundstrom, Paul Horn, Yuezhi Mao, Dmitri Zuev, Alec White,
  David Stuck, Shaama M.S., Shane Yost, Joonho Lee, David Small,
  Daniel Levine, Susi Lehtola, Hugh Burton, Evgeny Epifanovsky,
  Bang C. Huynh
 -----------------------------------------------------------------------
 Hartree-Fock
 A restricted SCF calculation will be
 performed using DIIS
 SCF converges when DIIS error is below 1.0e-06
 ---------------------------------------
  Cycle       Energy         DIIS error
 ---------------------------------------
    1    -632.0964724012      2.91e-02  
    2    -629.3430530822      1.94e-03  
    3    -629.4131528229      6.88e-04  
    4    -629.4206380962      3.56e-04  
    5    -629.4228254414      6.18e-05  
    6    -629.4229533509      2.53e-05  
    7    -629.4229835867      1.10e-05  
    8    -629.4229920674      5.08e-06  
    9    -629.4229935189      1.67e-06  
   10    -629.4229937047      6.33e-07  Convergence criterion met
 ---------------------------------------
 SCF time:   CPU 144.45s  wall 145.00s 

************** Final PCM Free Energy Summary **************
 G_electrostatic  =      -0.00576456 hartree =      -3.61731787 kcal/mol
 G_cavitation     =       0.00000000 hartree =       0.00000000 kcal/mol
 G_dispersion     =       0.00000000 hartree =       0.00000000 kcal/mol
 G_repulsion      =       0.00000000 hartree =       0.00000000 kcal/mol
 --------------------------------------------------
 Non-electrostatic Free Energy =       0.00000000 hartree =       0.00000000 kcal/mol
 Total                         =      -0.00576456 hartree =      -3.61731787 kcal/mol
 --------------------------------------------------
 SCF Energy (H0 + V/2)                       =    -629.42299370 
 Solute Internal Energy (H0)                 =    -629.41722914 
 Total Free Energy (H0 + V/2 + non-elec)     =    -629.42299370 hartree
                                             = -394968.88981486 kcal/mol
***********************************************************

 SCF   energy in the final basis set =     -629.4229937047
 Total energy in the final basis set =     -629.4229937047


 --------------------------------------------------------------
  Generalized many-body perturbation theory program
  by Joonho Lee, Fazle Rob, Xintian Feng, Evgeny Epifanovsky

 No regularization used 
 (reg. param. = 0.0000e+00)
  (P|Q)^-1/2 Time:  CPU 0.56 s  wall 0.56 s

 In RI-MP2 calculation: 
 # of frozen core orbitals: 11

 Components of the RIMP2 correlation energy:
        aaaa    correlation energy =        -0.1454001837 a.u.
        abab    correlation energy =        -0.8858141775 a.u.
        bbbb    correlation energy =        -0.1454001837 a.u.
        non-Brillouin singles      =        -0.0000000000 a.u.
        total same-spin energy     =        -0.2908003675 a.u.
        total opposite-spin energy =        -0.8858141775 a.u.

 Total  RIMP2   correlation energy =        -1.1766145450 a.u.
        RIMP2         total energy =      -630.5996082497 a.u.

 RI-MP2 Energy Time:  CPU 14.76 s  wall 14.81 s
 
 --------------------------------------------------------------
 
                    Orbital Energies (a.u.)
 --------------------------------------------------------------
 
 Alpha MOs
 -- Occupied --
-91.9782 -11.2831 -11.2503 -11.2472 -11.2266 -11.2253 -11.2199  -8.9779
 -6.6589  -6.6583  -6.6577  -1.1600  -1.0553  -0.9981  -0.9411  -0.8833
 -0.7428  -0.7201  -0.6496  -0.5876  -0.5735  -0.5667  -0.5587  -0.5442
 -0.5084  -0.4920  -0.4650  -0.4525  -0.3375  -0.2914
 -- Virtual --
  0.1113   0.1450   0.1477   0.1749   0.1820   0.1898   0.2085   0.2244
  0.2328   0.2412   0.2521   0.2592   0.2936   0.3218   0.3443   0.3527
  0.3890   0.3906   0.4038   0.4179   0.4367   0.4569   0.4708   0.4935
  0.5044   0.5077   0.5155   0.5362   0.5482   0.5563   0.5712   0.5898
  0.5944   0.6058   0.6125   0.6252   0.6353   0.6367   0.6458   0.6498
  0.6544   0.6640   0.6842   0.7096   0.7261   0.7497   0.7734   0.7872
  0.8212   0.8306   0.8438   0.8558   0.8704   0.8962   0.9242   0.9308
  0.9539   0.9725   0.9931   1.0186   1.0330   1.0562   1.0675   1.0729
  1.0775   1.0859   1.0995   1.1309   1.1551   1.1735   1.1786   1.2181
  1.2276   1.2424   1.2556   1.2665   1.2764   1.2879   1.3124   1.3349
  1.3586   1.3770   1.3973   1.4153   1.4259   1.4473   1.4579   1.4793
  1.5018   1.5130   1.5243   1.5437   1.5495   1.5660   1.5718   1.5839
  1.5971   1.6281   1.6401   1.6843   1.6995   1.7068   1.7142   1.7467
  1.7573   1.7949   1.8042   1.8345   1.8948   1.8997   1.9415   1.9513
  2.0083   2.0398   2.0948   2.1533   2.1797   2.2025   2.2285   2.2307
  2.2673   2.3050   2.3661   2.4154   2.4629   2.4883   2.5266   2.5351
  2.5666   2.5931   2.6465   2.6721   2.6761   2.7049   2.7221   2.7391
  2.7478   2.7600   2.7759   2.7901   2.8039   2.8473   2.8521   2.8807
  2.9064   2.9249   2.9395   2.9760   3.0033   3.0168   3.0435   3.0513
  3.0720   3.0946   3.1141   3.1368   3.1574   3.1619   3.1756   3.1850
  3.2268   3.2417   3.2583   3.2800   3.2952   3.3082   3.3236   3.3248
  3.3385   3.3722   3.3824   3.3982   3.4212   3.4241   3.4296   3.4378
  3.4434   3.4697   3.4840   3.4939   3.5124   3.5166   3.5310   3.5573
  3.5829   3.5937   3.6171   3.6207   3.6270   3.6410   3.6539   3.6859
  3.6912   3.7030   3.7202   3.7304   3.7669   3.7736   3.7901   3.8036
  3.8243   3.8338   3.8393   3.8804   3.9075   3.9203   3.9390   3.9511
  3.9758   3.9944   4.0149   4.0376   4.0432   4.0666   4.0986   4.1073
  4.1223   4.1329   4.1639   4.1972   4.2181   4.2233   4.2326   4.2632
  4.2896   4.2971   4.3154   4.3317   4.3456   4.3786   4.3865   4.4021
  4.4168   4.4263   4.4372   4.4529   4.4711   4.5149   4.5446   4.5730
  4.6089   4.6150   4.6423   4.6754   4.7095   4.7281   4.7562   4.7823
  4.8107   4.8301   4.8851   4.8933   4.9227   4.9624   5.0645   5.1033
  5.1139   5.1461   5.1658   5.1958   5.2103   5.2671   5.2905   5.3263
  5.3747   5.4071   5.4179   5.4434   5.4816   5.5155   5.5537   5.5676
  5.5808   5.6241   5.6398   5.6453   5.7009   5.8121   5.8354   5.9023
  5.9188   6.0280   6.0989   6.1421   6.2272   6.2561   6.3098   6.3823
  6.4690   6.6093   9.2191  11.4685  12.9737  13.8351  14.1702  14.6445
 --------------------------------------------------------------
 
          Ground-State Mulliken Net Atomic Charges

     Atom                 Charge (a.u.)
  ----------------------------------------
      1 C                     0.070511
      2 C                    -0.304150
      3 C                     0.047383
      4 H                     0.175412
      5 C                    -0.273649
      6 S                     0.000907
      7 C                    -0.275296
      8 H                     0.101224
      9 H                     0.107178
     10 H                     0.107316
     11 C                    -0.381698
     12 H                     0.138663
     13 H                     0.156846
     14 H                     0.137107
     15 H                     0.192247
  ----------------------------------------
  Sum of atomic charges =     0.000000

 -----------------------------------------------------------------
                    Cartesian Multipole Moments
 -----------------------------------------------------------------
    Charge (ESU x 10^10)
                -0.0000
    Dipole Moment (Debye)
         X      -0.5358      Y      -0.5709      Z       1.7625
       Tot       1.9286
    Quadrupole Moments (Debye-Ang)
        XX     -54.0855     XY       2.1014     YY     -42.0045
        XZ       0.2488     YZ      -0.5199     ZZ     -48.6126
    Octopole Moments (Debye-Ang^2)
       XXX      -9.0692    XXY     -31.4775    XYY      -3.5242
       YYY     -81.6455    XXZ      -2.0132    XYZ      -1.1722
       YYZ      -2.1140    XZZ      -2.4862    YZZ     -25.6168
       ZZZ       0.5058
    Hexadecapole Moments (Debye-Ang^3)
      XXXX     -83.2826   XXXY     -31.3896   XXYY    -161.6781
      XYYY     -21.4785   YYYY    -807.5862   XXXZ      -8.4603
      XXYZ     -29.4855   XYYZ      -0.6122   YYYZ    -107.5897
      XXZZ    -102.1988   XYZZ      -8.3037   YYZZ    -211.3421
      XZZZ      -8.9207   YZZZ     -99.3256   ZZZZ    -484.2979
 -----------------------------------------------------------------
 Total job time:  161.49s(wall), 159.59s(cpu) 
 Sun Jul 10 09:28:53 2022

        *************************************************************
        *                                                           *
        *  Thank you very much for using Q-Chem.  Have a nice day.  *
        *                                                           *
        *************************************************************


remove work dirs ./qchem4182437.0 -- ./qchem4182437.-1
rm -rf ./qchem4182437
