You are running Q-Chem version: 5.4.0

#
# job setting
#
local host:  exp-4-11
current dir: /expanse/lustre/scratch/theleonzhang/temp_project/Hydrogenated_Impropers_Test
input file:  Methylthiophene_Phi_15_Theta_70_Methylthiophene_Hydrogenated_Improper.qcin
output file: 
nprocs     : 0
nthreads   : 1
#
# qchem installation setting
#
QC:          /cm/shared/apps/spack/cpu/opt/spack/linux-centos8-zen2/gcc-10.2.0/qchem-5.4-akfmr7b3t57bfs6qan3padb2wnb2i7cl
QCAUX:       /cm/shared/apps/spack/cpu/opt/spack/linux-centos8-zen2/gcc-10.2.0/qchem-5.4-akfmr7b3t57bfs6qan3padb2wnb2i7cl/qcaux
QCPROG:      /cm/shared/apps/spack/cpu/opt/spack/linux-centos8-zen2/gcc-10.2.0/qchem-5.4-akfmr7b3t57bfs6qan3padb2wnb2i7cl/exe/qcprog.exe_s
QCPROG_S:    /cm/shared/apps/spack/cpu/opt/spack/linux-centos8-zen2/gcc-10.2.0/qchem-5.4-akfmr7b3t57bfs6qan3padb2wnb2i7cl/exe/qcprog.exe_s
PARALLEL:    -DSERIAL
QCMPI:       mpich
#
# qchem directory setting
#
qcrun:       qchem3419102
QCSCRATCH:   .
QCLOCALSCR:  
QCTMPDIR:    .
QCFILEPREF:  ./qchem3419102
QCSAVEDIR:   
workdirs:    ./qchem3419102
workdir0:    ./qchem3419102
partmpdirs =  
#
# parallel setting
#
QCRSH:           ssh
QCMPI:           mpich
QCMPIRUN:        /cm/shared/apps/spack/cpu/opt/spack/linux-centos8-zen2/gcc-10.2.0/qchem-5.4-akfmr7b3t57bfs6qan3padb2wnb2i7cl/bin/mpi/mpirun_qchem
QCMACHINEFILE:   ./qchem3419102/hostfile

#
# env setting
#
exported envs:   QC QCAUX QCSCRATCH QCRUNNAME QCFILEPREF QCPROG QCPROG_S GUIFILE

Running Job 1 of 1 Methylthiophene_Phi_15_Theta_70_Methylthiophene_Hydrogenated_Improper.qcin
qchem Methylthiophene_Phi_15_Theta_70_Methylthiophene_Hydrogenated_Improper.qcin_3419102.0 ./qchem3419102/ 0
/cm/shared/apps/spack/cpu/opt/spack/linux-centos8-zen2/gcc-10.2.0/qchem-5.4-akfmr7b3t57bfs6qan3padb2wnb2i7cl/exe/qcprog.exe_s Methylthiophene_Phi_15_Theta_70_Methylthiophene_Hydrogenated_Improper.qcin_3419102.0 ./qchem3419102/
                  Welcome to Q-Chem
     A Quantum Leap Into The Future Of Chemistry


 Q-Chem 5.4, Q-Chem, Inc., Pleasanton, CA (2021)

 License issued to: University of California, San Diego (site)

 E. Epifanovsky,  A. T. B. Gilbert,  Xintian Feng,  Joonho Lee,  Yuezhi Mao,  
 N. Mardirossian,  P. Pokhilko,  A. White,  M. Wormit,  M. P. Coons,  
 A. L. Dempwolff,  Zhengting Gan,  D. Hait,  P. R. Horn,  L. D. Jacobson,  
 I. Kaliman,  J. Kussmann,  A. W. Lange,  Ka Un Lao,  D. S. Levine,  Jie Liu,  
 S. C. McKenzie,  A. F. Morrison,  K. Nanda,  F. Plasser,  D. R. Rehn,  
 M. L. Vidal,  Zhi-Qiang You,  Ying Zhu,  B. Alam,  B. Albrecht,  
 A. Aldossary,  E. Alguire,  J. H. Andersen,  D. Barton,  K. Begam,  A. Behn,  
 Y. A. Bernard,  E. J. Berquist,  H. Burton,  A. Carreras,  K. Carter-Fenk,  
 R. Chakraborty,  A. D. Chien,  K. D. Closser,  V. Cofer-Shabica,  
 S. Dasgupta,  Jia Deng,  M. de Wergifosse,  M. Diedenhofen,  Hainam Do,  
 S. Ehlert,  Po-Tung Fang,  S. Fatehi,  Qingguo Feng,  J. Gayvert,  
 Qinghui Ge,  G. Gidofalvi,  M. Goldey,  J. Gomes,  C. Gonzalez-Espinoza,  
 S. Gulania,  A. Gunina,  M. W. D. Hanson-Heine,  P. H. P. Harbach,  
 A. W. Hauser,  M. F. Herbst,  M. Hernandez Vera,  M. Hodecker,  
 Z. C. Holden,  S. Houck,  Xunkun Huang,  Kerwin Hui,  B. C. Huynh,  
 M. Ivanov,  Hyunjun Ji,  Hanjie Jiang,  B. Kaduk,  S. Kaehler,  
 K. Khistyaev,  Jaehoon Kim,  P. Klunzinger,  Z. Koczor-Benda,  
 Joong Hoon Koh,  D. Kosenkov,  L. Koulias,  T. Kowalczyk,  C. M. Krauter,  
 K. Kue,  A. Kunitsa,  T. Kus,  A. Landau,  K. V. Lawler,  D. Lefrancois,  
 S. Lehtola,  Rain Li,  Yi-Pei Li,  Jiashu Liang,  M. Liebenthal,  
 Hung-Hsuan Lin,  You-Sheng Lin,  Fenglai Liu,  Kuan-Yu Liu,  
 M. Loipersberger,  A. Luenser,  A. Manjanath,  P. Manohar,  E. Mansoor,  
 S. F. Manzer,  Shan-Ping Mao,  A. V. Marenich,  T. Markovich,  S. Mason,  
 S. A. Maurer,  P. F. McLaughlin,  M. F. S. J. Menger,  J.-M. Mewes,  
 S. A. Mewes,  P. Morgante,  J. W. Mullinax,  T. S. Nguyen-Beck,  
 K. J. Oosterbaan,  G. Paran,  Alexander C. Paul,  Suranjan K. Paul,  
 F. Pavosevic,  Zheng Pei,  S. Prager,  E. I. Proynov,  E. Ramos,  B. Rana,  
 A. E. Rask,  A. Rettig,  R. M. Richard,  F. Rob,  E. Rossomme,  T. Scheele,  
 M. Scheurer,  M. Schneider,  N. Sergueev,  S. M. Sharada,  W. Skomorowski,  
 D. W. Small,  C. J. Stein,  Yu-Chuan Su,  E. J. Sundstrom,  Zhen Tao,  
 J. Thirman,  T. Tsuchimochi,  N. M. Tubman,  S. P. Veccham,  O. Vydrov,  
 J. Wenzel,  J. Witte,  A. Yamada,  Kun Yao,  S. Yeganeh,  S. R. Yost,  
 A. Zech,  Igor Ying Zhang,  Xing Zhang,  Yu Zhang,  D. Zuev,  
 A. Aspuru-Guzik,  A. T. Bell,  N. A. Besley,  K. B. Bravaya,  B. R. Brooks,  
 D. Casanova,  Jeng-Da Chai,  S. Coriani,  C. J. Cramer,  
 A. E. DePrince, III,  R. A. DiStasio Jr.,  A. Dreuw,  B. D. Dunietz,  
 T. R. Furlani,  W. A. Goddard III,  S. Grimme,  S. Hammes-Schiffer,  
 T. Head-Gordon,  W. J. Hehre,  Chao-Ping Hsu,  T.-C. Jagau,  Yousung Jung,  
 A. Klamt,  Jing Kong,  D. S. Lambrecht,  WanZhen Liang,  N. J. Mayhall,  
 C. W. McCurdy,  J. B. Neaton,  C. Ochsenfeld,  J. A. Parkhill,  R. Peverati,  
 V. A. Rassolov,  Yihan Shao,  L. V. Slipchenko,  T. Stauch,  R. P. Steele,  
 J. E. Subotnik,  A. J. W. Thom,  A. Tkatchenko,  D. G. Truhlar,  
 T. Van Voorhis,  T. A. Wesolowski,  K. B. Whaley,  H. L. Woodcock III,  
 P. M. Zimmerman,  S. Faraji,  P. M. W. Gill,  M. Head-Gordon,  
 J. M. Herbert,  A. I. Krylov

 Contributors to earlier versions of Q-Chem not listed above: 
 R. D. Adamson,  B. Austin,  R. Baer,  J. Baker,  G. J. O. Beran,  
 K. Brandhorst,  S. T. Brown,  E. F. C. Byrd,  A. K. Chakraborty,  
 G. K. L. Chan,  Chun-Min Chang,  Yunqing Chen,  C.-L. Cheng,  
 Siu Hung Chien,  D. M. Chipman,  D. L. Crittenden,  H. Dachsel,  
 R. J. Doerksen,  A. D. Dutoi,  R. G. Edgar,  J. Fosso-Tande,  
 L. Fusti-Molnar,  D. Ghosh,  A. Ghysels,  A. Golubeva-Zadorozhnaya,  
 J. Gonthier,  M. S. Gordon,  S. R. Gwaltney,  G. Hawkins,  J. E. Herr,  
 A. Heyden,  S. Hirata,  E. G. Hohenstein,  G. Kedziora,  F. J. Keil,  
 C. Kelley,  Jihan Kim,  R. A. King,  R. Z. Khaliullin,  P. P. Korambath,  
 W. Kurlancheek,  A. Laurent,  A. M. Lee,  M. S. Lee,  S. V. Levchenko,  
 Ching Yeh Lin,  D. Liotard,  E. Livshits,  R. C. Lochan,  I. Lotan,  
 L. A. Martinez-Martinez,  P. E. Maslen,  N. Nair,  D. P. O'Neill,  
 D. Neuhauser,  E. Neuscamman,  C. M. Oana,  R. Olivares-Amaya,  R. Olson,  
 T. M. Perrine,  B. Peters,  P. A. Pieniazek,  A. Prociuk,  Y. M. Rhee,  
 J. Ritchie,  M. A. Rohrdanz,  E. Rosta,  N. J. Russ,  H. F. Schaefer III,  
 M. W. Schmidt,  N. E. Schultz,  S. Sharma,  N. Shenvi,  C. D. Sherrill,  
 A. C. Simmonett,  A. Sodt,  T. Stein,  D. Stuck,  K. S. Thanthiriwatte,  
 V. Vanovschi,  L. Vogt,  Tao Wang,  A. Warshel,  M. A. Watson,  
 C. F. Williams,  Q. Wu,  X. Xu,  Jun Yang,  W. Zhang,  Yan Zhao

 Please cite Q-Chem as follows:
 Y. Shao et al., Mol. Phys. 113, 184-215 (2015)
 DOI: 10.1080/00268976.2014.952696

 Q-Chem 5.4.0 for Intel X86 EM64T Linux

 Parts of Q-Chem use Armadillo 9.800.1 (Horizon Scraper).
 http://arma.sourceforge.net/

 Q-Chem begins on Sun Jul 10 09:12:03 2022  

 Host: 
0

     Scratch files written to ./qchem3419102//
 May1621 |scratch|qcdevops|jenkins|workspace|build_RNUM    
 Processing $rem in /cm/shared/apps/spack/cpu/opt/spack/linux-centos8-zen2/gcc-10.2.0/qchem-5.4-akfmr7b3t57bfs6qan3padb2wnb2i7cl/config/preferences:
 Processing $rem in /home/theleonzhang/.qchemrc:
 Symmetry turned off for PCM/SM12/SMD calculation
 Core orbitals will be frozen

 Checking the input file for inconsistencies... 	...done.

--------------------------------------------------------------
User input:
--------------------------------------------------------------
$molecule
0 1
C	-0.176693	-0.553189	0.010276
C	0.046807	0.281011	1.109676
C	0.405007	1.617711	0.786976
H	-0.048593	-0.075289	2.146376
C	0.462207	1.830811	-0.602224
S	0.067207	0.357111	-1.476524
C	0.686607	2.668411	1.824876
H	0.576407	2.257311	2.846976
H	-0.005993	3.531411	1.736476
H	1.717907	3.069411	1.736476
C	-0.176693	-1.993889	0.010276
H	0.192607	-1.994089	1.025176
H	0.593107	-2.697689	-0.269824
H	-1.066693	-2.512789	0.334176
H	0.707907	2.747711	-1.151324
$end

$rem
JOBTYPE		SP
EXCHANGE	HF
CORRELATION	pRIMP2
BASIS		cc-pvtz
METHOD		rimp2
AUX_BASIS	rimp2-cc-pvtz
SOLVENT_METHOD	PCM
PURECART	11111
SYMMETRY	false
MEM_TOTAL	110000
SCF_CONVERGENCE = 6
THRESH=10
$end



$solvent
dielectric 4.90
$end
--------------------------------------------------------------
 ----------------------------------------------------------------
             Standard Nuclear Orientation (Angstroms)
    I     Atom           X                Y                Z
 ----------------------------------------------------------------
    1      C      -0.1766930000    -0.5531890000     0.0102760000
    2      C       0.0468070000     0.2810110000     1.1096760000
    3      C       0.4050070000     1.6177110000     0.7869760000
    4      H      -0.0485930000    -0.0752890000     2.1463760000
    5      C       0.4622070000     1.8308110000    -0.6022240000
    6      S       0.0672070000     0.3571110000    -1.4765240000
    7      C       0.6866070000     2.6684110000     1.8248760000
    8      H       0.5764070000     2.2573110000     2.8469760000
    9      H      -0.0059930000     3.5314110000     1.7364760000
   10      H       1.7179070000     3.0694110000     1.7364760000
   11      C      -0.1766930000    -1.9938890000     0.0102760000
   12      H       0.1926070000    -1.9940890000     1.0251760000
   13      H       0.5931070000    -2.6976890000    -0.2698240000
   14      H      -1.0666930000    -2.5127890000     0.3341760000
   15      H       0.7079070000     2.7477110000    -1.1513240000
 ----------------------------------------------------------------
 Nuclear Repulsion Energy =         344.69278183 hartrees
 There are       30 alpha and       30 beta electrons

 Q-Chem warning in module forms1/BasisType.C, line 2236:

 You are not using the predefined 5D/6D in this basis set.

 Requested basis set is cc-pVTZ
 There are 120 shells and 326 basis functions

 Total QAlloc Memory Limit 110000 MB
 Mega-Array Size       188 MB
 MEM_STATIC part       192 MB
 Discretize the solute cavity surface with Lebedev spheres
	Using 110 Lebedev grid points for each H atom
	Using 194 Lebedev grid points for other atoms
	Atomic van der Waals radii will be scaled by 1.20
 Remove points where switching function is < 1.0e-08
 Keep 1052 surface tesserae and discard 1186 interior tesserae
 Molecular Surface Area = 158.149 Angst**2

                       Distance Matrix (Angstroms)
             C (  1)   C (  2)   C (  3)   H (  4)   C (  5)   S (  6)
   C (  2)  1.398042
   C (  3)  2.377908  1.420989
   H (  4)  2.192652  1.100363  2.218101
   C (  5)  2.542991  2.346282  1.406613  3.383628
   S (  6)  1.760315  2.587400  2.612787  3.650450  1.758470
   C (  7)  3.796942  2.573040  1.503498  2.858631  2.577352  4.077377
   H (  8)  4.063611  2.684110  2.163808  2.514456  3.477344  4.750021
   H (  9)  4.437664  3.310705  2.175481  3.630168  2.929295  4.517179
   H ( 10)  4.437624  3.310684  2.175475  3.630107  2.929237  4.517162
   C ( 11)  1.440700  2.536494  3.739691  2.874084  3.925771  2.792358
   H ( 12)  1.800721  2.281332  3.625873  2.235411  4.165450  3.435458
   H ( 13)  2.295632  3.327780  4.446896  3.623090  4.542569  3.326334
   H ( 14)  2.176475  3.105898  4.408170  3.203436  4.699068  3.577805
   H ( 15)  3.609401  3.410833  2.263991  4.406410  1.096624  2.496241
             C (  7)   H (  8)   H (  9)   H ( 10)   C ( 11)   H ( 12)
   H (  8)  1.107175
   H (  9)  1.110080  1.787661
   H ( 10)  1.110043  1.787663  1.784734
   C ( 11)  5.076918  5.165920  5.791187  5.675058
   H ( 12)  4.756308  4.641192  5.574634  5.335871  1.080002
   H ( 13)  5.761210  5.853780  6.571594  6.208853  1.079992  1.527245
   H ( 14)  5.669310  5.636293  6.294750  6.393856  1.079939  1.527209
   H ( 15)  2.977332  4.030408  3.076236  3.076196  4.961311  5.242838
             H ( 13)   H ( 14)
   H ( 14)  1.775934
   H ( 15)  5.517482  5.747067
 
 Requested basis set is rimp2-cc-pVTZ
 There are 250 shells and 848 basis functions
 A cutoff of  1.0D-10 yielded   6209 shell pairs
 There are     45487 function pairs (     58489 Cartesian)
 Smallest overlap matrix eigenvalue = 1.10E-04

 Scale SEOQF with 1.000000e-01/1.000000e-01/1.000000e-01

 Standard Electronic Orientation quadrupole field applied
 Nucleus-field energy     =     0.0000000022 hartrees
 Guess from superposition of atomic densities
 Warning:  Energy on first SCF cycle will be non-variational
 SAD guess density has 60.000000 electrons

 -----------------------------------------------------------------------
  General SCF calculation program by
  Eric Jon Sundstrom, Paul Horn, Yuezhi Mao, Dmitri Zuev, Alec White,
  David Stuck, Shaama M.S., Shane Yost, Joonho Lee, David Small,
  Daniel Levine, Susi Lehtola, Hugh Burton, Evgeny Epifanovsky,
  Bang C. Huynh
 -----------------------------------------------------------------------
 Hartree-Fock
 A restricted SCF calculation will be
 performed using DIIS
 SCF converges when DIIS error is below 1.0e-06
 ---------------------------------------
  Cycle       Energy         DIIS error
 ---------------------------------------
    1    -632.1133253681      2.92e-02  
    2    -629.3400400754      1.91e-03  
    3    -629.4095381606      6.34e-04  
    4    -629.4165011052      3.24e-04  
    5    -629.4183216147      6.24e-05  
    6    -629.4184501787      2.47e-05  
    7    -629.4184819192      1.14e-05  
    8    -629.4184911527      4.92e-06  
    9    -629.4184926570      1.73e-06  
   10    -629.4184928281      5.06e-07  Convergence criterion met
 ---------------------------------------
 SCF time:   CPU 143.65s  wall 145.00s 

************** Final PCM Free Energy Summary **************
 G_electrostatic  =      -0.00543886 hartree =      -3.41293878 kcal/mol
 G_cavitation     =       0.00000000 hartree =       0.00000000 kcal/mol
 G_dispersion     =       0.00000000 hartree =       0.00000000 kcal/mol
 G_repulsion      =       0.00000000 hartree =       0.00000000 kcal/mol
 --------------------------------------------------
 Non-electrostatic Free Energy =       0.00000000 hartree =       0.00000000 kcal/mol
 Total                         =      -0.00543886 hartree =      -3.41293878 kcal/mol
 --------------------------------------------------
 SCF Energy (H0 + V/2)                       =    -629.41849283 
 Solute Internal Energy (H0)                 =    -629.41305396 
 Total Free Energy (H0 + V/2 + non-elec)     =    -629.41849283 hartree
                                             = -394966.06547218 kcal/mol
***********************************************************

 SCF   energy in the final basis set =     -629.4184928281
 Total energy in the final basis set =     -629.4184928281


 --------------------------------------------------------------
  Generalized many-body perturbation theory program
  by Joonho Lee, Fazle Rob, Xintian Feng, Evgeny Epifanovsky

 No regularization used 
 (reg. param. = 0.0000e+00)
  (P|Q)^-1/2 Time:  CPU 0.48 s  wall 0.48 s

 In RI-MP2 calculation: 
 # of frozen core orbitals: 11

 Components of the RIMP2 correlation energy:
        aaaa    correlation energy =        -0.1458468693 a.u.
        abab    correlation energy =        -0.8873357890 a.u.
        bbbb    correlation energy =        -0.1458468693 a.u.
        non-Brillouin singles      =        -0.0000000000 a.u.
        total same-spin energy     =        -0.2916937385 a.u.
        total opposite-spin energy =        -0.8873357890 a.u.

 Total  RIMP2   correlation energy =        -1.1790295275 a.u.
        RIMP2         total energy =      -630.5975223556 a.u.

 RI-MP2 Energy Time:  CPU 11.07 s  wall 11.09 s
 
 --------------------------------------------------------------
 
                    Orbital Energies (a.u.)
 --------------------------------------------------------------
 
 Alpha MOs
 -- Occupied --
-91.9757 -11.2771 -11.2569 -11.2472 -11.2334 -11.2274 -11.2156  -8.9757
 -6.6566  -6.6560  -6.6555  -1.1616  -1.0541  -0.9996  -0.9390  -0.8842
 -0.7423  -0.7240  -0.6481  -0.5910  -0.5774  -0.5689  -0.5579  -0.5421
 -0.5113  -0.4815  -0.4682  -0.4403  -0.3369  -0.3015
 -- Virtual --
  0.1017   0.1446   0.1518   0.1770   0.1877   0.1884   0.2009   0.2245
  0.2346   0.2462   0.2487   0.2698   0.3020   0.3128   0.3434   0.3617
  0.3775   0.3940   0.4113   0.4147   0.4337   0.4570   0.4715   0.4872
  0.4961   0.5024   0.5187   0.5327   0.5415   0.5436   0.5722   0.5858
  0.6018   0.6065   0.6191   0.6331   0.6387   0.6426   0.6457   0.6555
  0.6587   0.6647   0.6808   0.6945   0.7337   0.7459   0.7577   0.7692
  0.8040   0.8232   0.8402   0.8462   0.8685   0.8860   0.9101   0.9296
  0.9417   0.9636   1.0044   1.0160   1.0285   1.0530   1.0669   1.0722
  1.0809   1.0966   1.1040   1.1601   1.1662   1.1844   1.1930   1.2066
  1.2151   1.2222   1.2522   1.2563   1.2730   1.3024   1.3153   1.3205
  1.3410   1.3730   1.3927   1.4161   1.4275   1.4335   1.4716   1.4848
  1.4927   1.5004   1.5221   1.5327   1.5482   1.5640   1.5759   1.5881
  1.6045   1.6302   1.6426   1.6696   1.6827   1.7090   1.7130   1.7522
  1.7556   1.7894   1.8131   1.8229   1.8936   1.9070   1.9247   1.9549
  1.9922   2.0384   2.1000   2.1400   2.1796   2.1934   2.2205   2.2432
  2.2577   2.2876   2.3559   2.4103   2.4582   2.4990   2.5303   2.5683
  2.5737   2.5951   2.6368   2.6496   2.6750   2.6907   2.6987   2.7357
  2.7449   2.7550   2.7824   2.7944   2.8133   2.8297   2.8464   2.8913
  2.9007   2.9301   2.9410   2.9641   2.9800   3.0031   3.0437   3.0533
  3.0958   3.1128   3.1221   3.1425   3.1522   3.1572   3.1846   3.1950
  3.2256   3.2486   3.2654   3.2767   3.2876   3.3068   3.3217   3.3348
  3.3394   3.3676   3.3730   3.3866   3.4064   3.4232   3.4244   3.4430
  3.4505   3.4592   3.4724   3.4965   3.4970   3.5273   3.5465   3.5514
  3.5886   3.5929   3.6042   3.6205   3.6359   3.6554   3.6663   3.6799
  3.6978   3.7059   3.7257   3.7355   3.7577   3.7688   3.7851   3.7895
  3.7995   3.8555   3.8716   3.8914   3.8984   3.9180   3.9441   3.9700
  3.9718   3.9766   3.9903   4.0263   4.0501   4.0727   4.0863   4.1046
  4.1341   4.1394   4.1531   4.1744   4.2065   4.2230   4.2242   4.2285
  4.2702   4.2896   4.3020   4.3313   4.3624   4.3740   4.3989   4.4053
  4.4140   4.4290   4.4405   4.4661   4.4817   4.5014   4.5566   4.5773
  4.6065   4.6332   4.6637   4.6838   4.7176   4.7636   4.7756   4.8022
  4.8121   4.8296   4.8651   4.8931   4.9190   4.9255   5.0845   5.0889
  5.1061   5.1322   5.1853   5.2119   5.2429   5.2631   5.2853   5.3071
  5.3665   5.3990   5.4091   5.4404   5.4695   5.4978   5.5470   5.5636
  5.5964   5.6243   5.6333   5.6943   5.7319   5.8140   5.8404   5.8541
  5.9300   5.9701   6.0654   6.1260   6.2273   6.2464   6.2822   6.3652
  6.4355   6.4642   9.2001  11.4250  12.9238  13.8693  14.1911  14.4123
 --------------------------------------------------------------
 
          Ground-State Mulliken Net Atomic Charges

     Atom                 Charge (a.u.)
  ----------------------------------------
      1 C                     0.053021
      2 C                    -0.268332
      3 C                     0.032466
      4 H                     0.176064
      5 C                    -0.253078
      6 S                    -0.004969
      7 C                    -0.272931
      8 H                     0.101130
      9 H                     0.107155
     10 H                     0.107075
     11 C                    -0.376844
     12 H                     0.128236
     13 H                     0.151844
     14 H                     0.126595
     15 H                     0.192568
  ----------------------------------------
  Sum of atomic charges =     0.000000

 -----------------------------------------------------------------
                    Cartesian Multipole Moments
 -----------------------------------------------------------------
    Charge (ESU x 10^10)
                -0.0000
    Dipole Moment (Debye)
         X       0.5997      Y      -0.1234      Z       2.1186
       Tot       2.2053
    Quadrupole Moments (Debye-Ang)
        XX     -53.3082     XY       1.5481     YY     -42.8881
        XZ      -0.2334     YZ      -0.9766     ZZ     -48.8448
    Octopole Moments (Debye-Ang^2)
       XXX     -28.5785    XXY     -29.7827    XYY      -2.4500
       YYY     -76.7348    XXZ      -2.1631    XYZ       0.1325
       YYZ      -2.2675    XZZ      -7.9583    YZZ     -22.9552
       ZZZ       0.7404
    Hexadecapole Moments (Debye-Ang^3)
      XXXX    -116.9503   XXXY     -79.4264   XXYY    -154.1673
      XYYY     -73.3377   YYYY    -779.3222   XXXZ     -23.5268
      XXYZ     -29.4650   XYYZ     -13.5381   YYYZ    -101.5994
      XXZZ    -106.6758   XYZZ     -21.7858   YYZZ    -211.4332
      XZZZ     -25.3617   YZZZ     -93.6596   ZZZZ    -482.7997
 -----------------------------------------------------------------
 Total job time:  156.71s(wall), 155.07s(cpu) 
 Sun Jul 10 09:14:40 2022

        *************************************************************
        *                                                           *
        *  Thank you very much for using Q-Chem.  Have a nice day.  *
        *                                                           *
        *************************************************************


remove work dirs ./qchem3419102.0 -- ./qchem3419102.-1
rm -rf ./qchem3419102
