You are running Q-Chem version: 5.4.0

#
# job setting
#
local host:  exp-2-29
current dir: /expanse/lustre/scratch/theleonzhang/temp_project/Hydrogenated_Impropers_Test
input file:  Methylthiophene_Phi_40_Theta_10_Methylthiophene_Hydrogenated_Improper_Alternate.qcin
output file: 
nprocs     : 0
nthreads   : 1
#
# qchem installation setting
#
QC:          /cm/shared/apps/spack/cpu/opt/spack/linux-centos8-zen2/gcc-10.2.0/qchem-5.4-akfmr7b3t57bfs6qan3padb2wnb2i7cl
QCAUX:       /cm/shared/apps/spack/cpu/opt/spack/linux-centos8-zen2/gcc-10.2.0/qchem-5.4-akfmr7b3t57bfs6qan3padb2wnb2i7cl/qcaux
QCPROG:      /cm/shared/apps/spack/cpu/opt/spack/linux-centos8-zen2/gcc-10.2.0/qchem-5.4-akfmr7b3t57bfs6qan3padb2wnb2i7cl/exe/qcprog.exe_s
QCPROG_S:    /cm/shared/apps/spack/cpu/opt/spack/linux-centos8-zen2/gcc-10.2.0/qchem-5.4-akfmr7b3t57bfs6qan3padb2wnb2i7cl/exe/qcprog.exe_s
PARALLEL:    -DSERIAL
QCMPI:       mpich
#
# qchem directory setting
#
qcrun:       qchem569045
QCSCRATCH:   .
QCLOCALSCR:  
QCTMPDIR:    .
QCFILEPREF:  ./qchem569045
QCSAVEDIR:   
workdirs:    ./qchem569045
workdir0:    ./qchem569045
partmpdirs =  
#
# parallel setting
#
QCRSH:           ssh
QCMPI:           mpich
QCMPIRUN:        /cm/shared/apps/spack/cpu/opt/spack/linux-centos8-zen2/gcc-10.2.0/qchem-5.4-akfmr7b3t57bfs6qan3padb2wnb2i7cl/bin/mpi/mpirun_qchem
QCMACHINEFILE:   ./qchem569045/hostfile

#
# env setting
#
exported envs:   QC QCAUX QCSCRATCH QCRUNNAME QCFILEPREF QCPROG QCPROG_S GUIFILE

Running Job 1 of 1 Methylthiophene_Phi_40_Theta_10_Methylthiophene_Hydrogenated_Improper_Alternate.qcin
qchem Methylthiophene_Phi_40_Theta_10_Methylthiophene_Hydrogenated_Improper_Alternate.qcin_569045.0 ./qchem569045/ 0
/cm/shared/apps/spack/cpu/opt/spack/linux-centos8-zen2/gcc-10.2.0/qchem-5.4-akfmr7b3t57bfs6qan3padb2wnb2i7cl/exe/qcprog.exe_s Methylthiophene_Phi_40_Theta_10_Methylthiophene_Hydrogenated_Improper_Alternate.qcin_569045.0 ./qchem569045/
                  Welcome to Q-Chem
     A Quantum Leap Into The Future Of Chemistry


 Q-Chem 5.4, Q-Chem, Inc., Pleasanton, CA (2021)

 License issued to: University of California, San Diego (site)

 E. Epifanovsky,  A. T. B. Gilbert,  Xintian Feng,  Joonho Lee,  Yuezhi Mao,  
 N. Mardirossian,  P. Pokhilko,  A. White,  M. Wormit,  M. P. Coons,  
 A. L. Dempwolff,  Zhengting Gan,  D. Hait,  P. R. Horn,  L. D. Jacobson,  
 I. Kaliman,  J. Kussmann,  A. W. Lange,  Ka Un Lao,  D. S. Levine,  Jie Liu,  
 S. C. McKenzie,  A. F. Morrison,  K. Nanda,  F. Plasser,  D. R. Rehn,  
 M. L. Vidal,  Zhi-Qiang You,  Ying Zhu,  B. Alam,  B. Albrecht,  
 A. Aldossary,  E. Alguire,  J. H. Andersen,  D. Barton,  K. Begam,  A. Behn,  
 Y. A. Bernard,  E. J. Berquist,  H. Burton,  A. Carreras,  K. Carter-Fenk,  
 R. Chakraborty,  A. D. Chien,  K. D. Closser,  V. Cofer-Shabica,  
 S. Dasgupta,  Jia Deng,  M. de Wergifosse,  M. Diedenhofen,  Hainam Do,  
 S. Ehlert,  Po-Tung Fang,  S. Fatehi,  Qingguo Feng,  J. Gayvert,  
 Qinghui Ge,  G. Gidofalvi,  M. Goldey,  J. Gomes,  C. Gonzalez-Espinoza,  
 S. Gulania,  A. Gunina,  M. W. D. Hanson-Heine,  P. H. P. Harbach,  
 A. W. Hauser,  M. F. Herbst,  M. Hernandez Vera,  M. Hodecker,  
 Z. C. Holden,  S. Houck,  Xunkun Huang,  Kerwin Hui,  B. C. Huynh,  
 M. Ivanov,  Hyunjun Ji,  Hanjie Jiang,  B. Kaduk,  S. Kaehler,  
 K. Khistyaev,  Jaehoon Kim,  P. Klunzinger,  Z. Koczor-Benda,  
 Joong Hoon Koh,  D. Kosenkov,  L. Koulias,  T. Kowalczyk,  C. M. Krauter,  
 K. Kue,  A. Kunitsa,  T. Kus,  A. Landau,  K. V. Lawler,  D. Lefrancois,  
 S. Lehtola,  Rain Li,  Yi-Pei Li,  Jiashu Liang,  M. Liebenthal,  
 Hung-Hsuan Lin,  You-Sheng Lin,  Fenglai Liu,  Kuan-Yu Liu,  
 M. Loipersberger,  A. Luenser,  A. Manjanath,  P. Manohar,  E. Mansoor,  
 S. F. Manzer,  Shan-Ping Mao,  A. V. Marenich,  T. Markovich,  S. Mason,  
 S. A. Maurer,  P. F. McLaughlin,  M. F. S. J. Menger,  J.-M. Mewes,  
 S. A. Mewes,  P. Morgante,  J. W. Mullinax,  T. S. Nguyen-Beck,  
 K. J. Oosterbaan,  G. Paran,  Alexander C. Paul,  Suranjan K. Paul,  
 F. Pavosevic,  Zheng Pei,  S. Prager,  E. I. Proynov,  E. Ramos,  B. Rana,  
 A. E. Rask,  A. Rettig,  R. M. Richard,  F. Rob,  E. Rossomme,  T. Scheele,  
 M. Scheurer,  M. Schneider,  N. Sergueev,  S. M. Sharada,  W. Skomorowski,  
 D. W. Small,  C. J. Stein,  Yu-Chuan Su,  E. J. Sundstrom,  Zhen Tao,  
 J. Thirman,  T. Tsuchimochi,  N. M. Tubman,  S. P. Veccham,  O. Vydrov,  
 J. Wenzel,  J. Witte,  A. Yamada,  Kun Yao,  S. Yeganeh,  S. R. Yost,  
 A. Zech,  Igor Ying Zhang,  Xing Zhang,  Yu Zhang,  D. Zuev,  
 A. Aspuru-Guzik,  A. T. Bell,  N. A. Besley,  K. B. Bravaya,  B. R. Brooks,  
 D. Casanova,  Jeng-Da Chai,  S. Coriani,  C. J. Cramer,  
 A. E. DePrince, III,  R. A. DiStasio Jr.,  A. Dreuw,  B. D. Dunietz,  
 T. R. Furlani,  W. A. Goddard III,  S. Grimme,  S. Hammes-Schiffer,  
 T. Head-Gordon,  W. J. Hehre,  Chao-Ping Hsu,  T.-C. Jagau,  Yousung Jung,  
 A. Klamt,  Jing Kong,  D. S. Lambrecht,  WanZhen Liang,  N. J. Mayhall,  
 C. W. McCurdy,  J. B. Neaton,  C. Ochsenfeld,  J. A. Parkhill,  R. Peverati,  
 V. A. Rassolov,  Yihan Shao,  L. V. Slipchenko,  T. Stauch,  R. P. Steele,  
 J. E. Subotnik,  A. J. W. Thom,  A. Tkatchenko,  D. G. Truhlar,  
 T. Van Voorhis,  T. A. Wesolowski,  K. B. Whaley,  H. L. Woodcock III,  
 P. M. Zimmerman,  S. Faraji,  P. M. W. Gill,  M. Head-Gordon,  
 J. M. Herbert,  A. I. Krylov

 Contributors to earlier versions of Q-Chem not listed above: 
 R. D. Adamson,  B. Austin,  R. Baer,  J. Baker,  G. J. O. Beran,  
 K. Brandhorst,  S. T. Brown,  E. F. C. Byrd,  A. K. Chakraborty,  
 G. K. L. Chan,  Chun-Min Chang,  Yunqing Chen,  C.-L. Cheng,  
 Siu Hung Chien,  D. M. Chipman,  D. L. Crittenden,  H. Dachsel,  
 R. J. Doerksen,  A. D. Dutoi,  R. G. Edgar,  J. Fosso-Tande,  
 L. Fusti-Molnar,  D. Ghosh,  A. Ghysels,  A. Golubeva-Zadorozhnaya,  
 J. Gonthier,  M. S. Gordon,  S. R. Gwaltney,  G. Hawkins,  J. E. Herr,  
 A. Heyden,  S. Hirata,  E. G. Hohenstein,  G. Kedziora,  F. J. Keil,  
 C. Kelley,  Jihan Kim,  R. A. King,  R. Z. Khaliullin,  P. P. Korambath,  
 W. Kurlancheek,  A. Laurent,  A. M. Lee,  M. S. Lee,  S. V. Levchenko,  
 Ching Yeh Lin,  D. Liotard,  E. Livshits,  R. C. Lochan,  I. Lotan,  
 L. A. Martinez-Martinez,  P. E. Maslen,  N. Nair,  D. P. O'Neill,  
 D. Neuhauser,  E. Neuscamman,  C. M. Oana,  R. Olivares-Amaya,  R. Olson,  
 T. M. Perrine,  B. Peters,  P. A. Pieniazek,  A. Prociuk,  Y. M. Rhee,  
 J. Ritchie,  M. A. Rohrdanz,  E. Rosta,  N. J. Russ,  H. F. Schaefer III,  
 M. W. Schmidt,  N. E. Schultz,  S. Sharma,  N. Shenvi,  C. D. Sherrill,  
 A. C. Simmonett,  A. Sodt,  T. Stein,  D. Stuck,  K. S. Thanthiriwatte,  
 V. Vanovschi,  L. Vogt,  Tao Wang,  A. Warshel,  M. A. Watson,  
 C. F. Williams,  Q. Wu,  X. Xu,  Jun Yang,  W. Zhang,  Yan Zhao

 Please cite Q-Chem as follows:
 Y. Shao et al., Mol. Phys. 113, 184-215 (2015)
 DOI: 10.1080/00268976.2014.952696

 Q-Chem 5.4.0 for Intel X86 EM64T Linux

 Parts of Q-Chem use Armadillo 9.800.1 (Horizon Scraper).
 http://arma.sourceforge.net/

 Q-Chem begins on Sun Jul 10 09:30:24 2022  

 Host: 
0

     Scratch files written to ./qchem569045//
 May1621 |scratch|qcdevops|jenkins|workspace|build_RNUM    
 Processing $rem in /cm/shared/apps/spack/cpu/opt/spack/linux-centos8-zen2/gcc-10.2.0/qchem-5.4-akfmr7b3t57bfs6qan3padb2wnb2i7cl/config/preferences:
 Processing $rem in /home/theleonzhang/.qchemrc:
 Symmetry turned off for PCM/SM12/SMD calculation
 Core orbitals will be frozen

 Checking the input file for inconsistencies... 	...done.

--------------------------------------------------------------
User input:
--------------------------------------------------------------
$molecule
0 1
C	-0.440719	-0.417594	0.013623
C	0.114381	0.243906	1.113023
C	1.003981	1.304106	0.790323
H	-0.122619	-0.038594	2.149723
C	1.145881	1.473106	-0.598877
S	0.165081	0.304306	-1.473177
C	1.703181	2.137306	1.828223
H	1.429581	1.811306	2.850323
H	1.440181	3.212106	1.739823
H	2.807381	2.064906	1.739823
C	-0.440719	-1.858294	0.013623
H	0.622881	-1.858494	0.201323
H	-0.298419	-2.562094	-0.793077
H	-0.605219	-2.377194	0.946323
H	1.755981	2.200206	-1.147977
$end

$rem
JOBTYPE		SP
EXCHANGE	HF
CORRELATION	pRIMP2
BASIS		cc-pvtz
METHOD		rimp2
AUX_BASIS	rimp2-cc-pvtz
SOLVENT_METHOD	PCM
PURECART	11111
SYMMETRY	false
MEM_TOTAL	110000
SCF_CONVERGENCE = 6
THRESH=10
$end



$solvent
dielectric 4.90
$end
--------------------------------------------------------------
 ----------------------------------------------------------------
             Standard Nuclear Orientation (Angstroms)
    I     Atom           X                Y                Z
 ----------------------------------------------------------------
    1      C      -0.4407190000    -0.4175940000     0.0136230000
    2      C       0.1143810000     0.2439060000     1.1130230000
    3      C       1.0039810000     1.3041060000     0.7903230000
    4      H      -0.1226190000    -0.0385940000     2.1497230000
    5      C       1.1458810000     1.4731060000    -0.5988770000
    6      S       0.1650810000     0.3043060000    -1.4731770000
    7      C       1.7031810000     2.1373060000     1.8282230000
    8      H       1.4295810000     1.8113060000     2.8503230000
    9      H       1.4401810000     3.2121060000     1.7398230000
   10      H       2.8073810000     2.0649060000     1.7398230000
   11      C      -0.4407190000    -1.8582940000     0.0136230000
   12      H       0.6228810000    -1.8584940000     0.2013230000
   13      H      -0.2984190000    -2.5620940000    -0.7930770000
   14      H      -0.6052190000    -2.3771940000     0.9463230000
   15      H       1.7559810000     2.2002060000    -1.1479770000
 ----------------------------------------------------------------
 Nuclear Repulsion Energy =         347.87026434 hartrees
 There are       30 alpha and       30 beta electrons

 Q-Chem warning in module forms1/BasisType.C, line 2236:

 You are not using the predefined 5D/6D in this basis set.

 Requested basis set is cc-pVTZ
 There are 120 shells and 326 basis functions

 Total QAlloc Memory Limit 110000 MB
 Mega-Array Size       188 MB
 MEM_STATIC part       192 MB
 Discretize the solute cavity surface with Lebedev spheres
	Using 110 Lebedev grid points for each H atom
	Using 194 Lebedev grid points for other atoms
	Atomic van der Waals radii will be scaled by 1.20
 Remove points where switching function is < 1.0e-08
 Keep 1049 surface tesserae and discard 1189 interior tesserae
 Molecular Surface Area = 157.474 Angst**2

                       Distance Matrix (Angstroms)
             C (  1)   C (  2)   C (  3)   H (  4)   C (  5)   S (  6)
   C (  2)  1.397998
   C (  3)  2.377955  1.421108
   H (  4)  2.192659  1.100328  2.218116
   C (  5)  2.543069  2.346386  1.406618  3.383656
   S (  6)  1.760315  2.587402  2.612812  3.650446  1.758540
   C (  7)  3.796919  2.573084  1.503442  2.858575  2.577316  4.077362
   H (  8)  4.063605  2.684158  2.163790  2.514417  3.477333  4.750017
   H (  9)  4.437598  3.310715  2.175382  3.630071  2.929207  4.517140
   H ( 10)  4.437649  3.310766  2.175458  3.630101  2.929220  4.517171
   C ( 11)  1.440700  2.436403  3.562470  2.824078  3.740412  2.693401
   H ( 12)  1.800741  2.347308  3.239475  2.768405  3.466036  2.773308
   H ( 13)  2.295625  3.417200  4.376175  3.880597  4.290286  2.982217
   H ( 14)  2.176470  2.723193  4.020675  2.673972  4.503199  3.692937
   H ( 15)  3.609388  3.410877  2.263958  4.406380  1.096543  2.496228
             C (  7)   H (  8)   H (  9)   H ( 10)   C ( 11)   H ( 12)
   H (  8)  1.107168
   H (  9)  1.110035  1.787614
   H ( 10)  1.110096  1.787696  1.784742
   C ( 11)  4.884045  5.001085  5.676840  5.377864
   H ( 12)  4.447501  4.597325  5.361525  4.746798  1.080035
   H ( 13)  5.741252  5.948695  6.540619  6.121332  1.079976  1.527311
   H ( 14)  5.146569  5.030821  6.004463  5.657538  1.079929  1.527188
   H ( 15)  2.977333  4.030407  3.076209  3.076221  4.758805  4.424655
             H ( 13)   H ( 14)
   H ( 14)  1.775902
   H ( 15)  5.198655  5.560031
 
 Requested basis set is rimp2-cc-pVTZ
 There are 250 shells and 848 basis functions
 A cutoff of  1.0D-10 yielded   6302 shell pairs
 There are     46320 function pairs (     59575 Cartesian)
 Smallest overlap matrix eigenvalue = 1.26E-04

 Scale SEOQF with 1.000000e-01/1.000000e-01/1.000000e-01

 Standard Electronic Orientation quadrupole field applied
 Nucleus-field energy     =     0.0000000002 hartrees
 Guess from superposition of atomic densities
 Warning:  Energy on first SCF cycle will be non-variational
 SAD guess density has 60.000000 electrons

 -----------------------------------------------------------------------
  General SCF calculation program by
  Eric Jon Sundstrom, Paul Horn, Yuezhi Mao, Dmitri Zuev, Alec White,
  David Stuck, Shaama M.S., Shane Yost, Joonho Lee, David Small,
  Daniel Levine, Susi Lehtola, Hugh Burton, Evgeny Epifanovsky,
  Bang C. Huynh
 -----------------------------------------------------------------------
 Hartree-Fock
 A restricted SCF calculation will be
 performed using DIIS
 SCF converges when DIIS error is below 1.0e-06
 ---------------------------------------
  Cycle       Energy         DIIS error
 ---------------------------------------
    1    -632.1516414523      2.94e-02  
    2    -629.3125436107      1.93e-03  
    3    -629.3829738057      6.65e-04  
    4    -629.3903530315      3.37e-04  
    5    -629.3923613003      6.41e-05  
    6    -629.3924965267      2.62e-05  
    7    -629.3925310658      1.20e-05  
    8    -629.3925411299      5.36e-06  
    9    -629.3925429877      1.96e-06  
   10    -629.3925432334      5.77e-07  Convergence criterion met
 ---------------------------------------
 SCF time:   CPU 148.26s  wall 149.00s 

************** Final PCM Free Energy Summary **************
 G_electrostatic  =      -0.00538338 hartree =      -3.37812224 kcal/mol
 G_cavitation     =       0.00000000 hartree =       0.00000000 kcal/mol
 G_dispersion     =       0.00000000 hartree =       0.00000000 kcal/mol
 G_repulsion      =       0.00000000 hartree =       0.00000000 kcal/mol
 --------------------------------------------------
 Non-electrostatic Free Energy =       0.00000000 hartree =       0.00000000 kcal/mol
 Total                         =      -0.00538338 hartree =      -3.37812224 kcal/mol
 --------------------------------------------------
 SCF Energy (H0 + V/2)                       =    -629.39254323 
 Solute Internal Energy (H0)                 =    -629.38715985 
 Total Free Energy (H0 + V/2 + non-elec)     =    -629.39254323 hartree
                                             = -394949.78185573 kcal/mol
***********************************************************

 SCF   energy in the final basis set =     -629.3925432334
 Total energy in the final basis set =     -629.3925432334


 --------------------------------------------------------------
  Generalized many-body perturbation theory program
  by Joonho Lee, Fazle Rob, Xintian Feng, Evgeny Epifanovsky

 No regularization used 
 (reg. param. = 0.0000e+00)
  (P|Q)^-1/2 Time:  CPU 0.48 s  wall 0.49 s

 In RI-MP2 calculation: 
 # of frozen core orbitals: 11

 Components of the RIMP2 correlation energy:
        aaaa    correlation energy =        -0.1465502679 a.u.
        abab    correlation energy =        -0.8903664892 a.u.
        bbbb    correlation energy =        -0.1465502679 a.u.
        non-Brillouin singles      =        -0.0000000000 a.u.
        total same-spin energy     =        -0.2931005357 a.u.
        total opposite-spin energy =        -0.8903664892 a.u.

 Total  RIMP2   correlation energy =        -1.1834670249 a.u.
        RIMP2         total energy =      -630.5760102583 a.u.

 RI-MP2 Energy Time:  CPU 11.40 s  wall 11.44 s
 
 --------------------------------------------------------------
 
                    Orbital Energies (a.u.)
 --------------------------------------------------------------
 
 Alpha MOs
 -- Occupied --
-91.9773 -11.2763 -11.2588 -11.2492 -11.2295 -11.2277 -11.2185  -8.9775
 -6.6584  -6.6578  -6.6573  -1.1674  -1.0570  -0.9976  -0.9383  -0.8820
 -0.7458  -0.7231  -0.6454  -0.5881  -0.5815  -0.5693  -0.5532  -0.5455
 -0.5096  -0.4891  -0.4592  -0.4552  -0.3381  -0.2870
 -- Virtual --
  0.0868   0.1442   0.1570   0.1750   0.1840   0.1916   0.2116   0.2190
  0.2264   0.2408   0.2480   0.2582   0.2989   0.3230   0.3382   0.3505
  0.3763   0.3936   0.4005   0.4195   0.4461   0.4558   0.4603   0.4678
  0.4856   0.4960   0.5166   0.5332   0.5444   0.5526   0.5704   0.5839
  0.5892   0.6049   0.6095   0.6191   0.6280   0.6375   0.6381   0.6459
  0.6600   0.6659   0.6810   0.6932   0.7076   0.7512   0.7711   0.7856
  0.7903   0.8124   0.8384   0.8442   0.8608   0.8925   0.9016   0.9191
  0.9439   0.9714   1.0100   1.0349   1.0490   1.0555   1.0752   1.0833
  1.0857   1.1098   1.1293   1.1373   1.1573   1.1702   1.1951   1.2004
  1.2238   1.2472   1.2564   1.2611   1.2746   1.2976   1.3196   1.3359
  1.3504   1.3598   1.3889   1.4153   1.4257   1.4315   1.4727   1.4797
  1.4844   1.5018   1.5100   1.5272   1.5338   1.5515   1.5584   1.5680
  1.6186   1.6232   1.6458   1.6675   1.6819   1.6970   1.7223   1.7559
  1.7730   1.7989   1.8152   1.8192   1.8758   1.9133   1.9379   1.9823
  2.0004   2.0360   2.0692   2.1474   2.1742   2.1907   2.2149   2.2392
  2.2682   2.2747   2.3424   2.4055   2.4172   2.4788   2.4981   2.5415
  2.5696   2.5952   2.6354   2.6556   2.6722   2.6847   2.7220   2.7420
  2.7480   2.7680   2.7864   2.7997   2.8252   2.8397   2.8542   2.8945
  2.9103   2.9622   2.9703   2.9928   3.0159   3.0373   3.0646   3.0893
  3.1007   3.1083   3.1147   3.1341   3.1497   3.1600   3.1772   3.1850
  3.2101   3.2365   3.2393   3.2609   3.2927   3.3037   3.3175   3.3289
  3.3390   3.3613   3.3702   3.3805   3.3960   3.4054   3.4183   3.4410
  3.4498   3.4578   3.4850   3.5070   3.5141   3.5313   3.5491   3.5542
  3.5645   3.5884   3.6155   3.6191   3.6262   3.6523   3.6580   3.6873
  3.7103   3.7227   3.7260   3.7331   3.7463   3.7654   3.7887   3.8060
  3.8116   3.8351   3.8707   3.8909   3.9146   3.9384   3.9498   3.9529
  3.9809   4.0251   4.0346   4.0378   4.0544   4.0765   4.1082   4.1259
  4.1344   4.1597   4.1686   4.2018   4.2141   4.2347   4.2567   4.2808
  4.2926   4.3023   4.3239   4.3320   4.3641   4.3652   4.3945   4.4027
  4.4107   4.4450   4.4643   4.4818   4.4984   4.5167   4.5391   4.5828
  4.5880   4.6349   4.6526   4.6721   4.7052   4.7383   4.7601   4.7885
  4.8102   4.8465   4.8656   4.8879   4.9144   4.9360   5.0642   5.0845
  5.1099   5.1185   5.1717   5.1977   5.2130   5.2638   5.2915   5.3295
  5.3698   5.4001   5.4215   5.4318   5.4600   5.5169   5.5491   5.5604
  5.5911   5.6136   5.6246   5.6868   5.7032   5.8141   5.8376   5.8522
  5.9178   5.9750   6.0012   6.1499   6.2263   6.2285   6.2740   6.3566
  6.4101   6.4799   9.2141  11.6469  12.8397  13.7200  14.1769  14.3724
 --------------------------------------------------------------
 
          Ground-State Mulliken Net Atomic Charges

     Atom                 Charge (a.u.)
  ----------------------------------------
      1 C                     0.011770
      2 C                    -0.259503
      3 C                     0.038047
      4 H                     0.175971
      5 C                    -0.260260
      6 S                     0.006381
      7 C                    -0.269110
      8 H                     0.101881
      9 H                     0.107737
     10 H                     0.105723
     11 C                    -0.376524
     12 H                     0.145214
     13 H                     0.154098
     14 H                     0.124747
     15 H                     0.193828
  ----------------------------------------
  Sum of atomic charges =     0.000000

 -----------------------------------------------------------------
                    Cartesian Multipole Moments
 -----------------------------------------------------------------
    Charge (ESU x 10^10)
                -0.0000
    Dipole Moment (Debye)
         X       1.6504      Y      -0.4455      Z       1.6034
       Tot       2.3438
    Quadrupole Moments (Debye-Ang)
        XX     -51.6279     XY       3.3517     YY     -46.0632
        XZ       0.0455     YZ      -0.0131     ZZ     -48.2981
    Octopole Moments (Debye-Ang^2)
       XXX     -65.2768    XXY     -14.2295    XYY     -13.2075
       YYY     -63.2486    XXZ      -3.1006    XYZ      -1.0756
       YYZ      -3.7603    XZZ     -20.0234    YZZ     -18.6885
       ZZZ       1.1398
    Hexadecapole Moments (Debye-Ang^3)
      XXXX    -307.2739   XXXY    -153.0386   XXYY    -146.9071
      XYYY    -150.0994   YYYY    -584.3491   XXXZ     -60.7608
      XXYZ     -27.3764   XYYZ     -25.3059   YYYZ     -73.1844
      XXZZ    -132.7532   XYZZ     -43.0377   YYZZ    -174.5740
      XZZZ     -65.2847   YZZZ     -76.5157   ZZZZ    -482.4575
 -----------------------------------------------------------------
 Total job time:  161.97s(wall), 160.02s(cpu) 
 Sun Jul 10 09:33:06 2022

        *************************************************************
        *                                                           *
        *  Thank you very much for using Q-Chem.  Have a nice day.  *
        *                                                           *
        *************************************************************


remove work dirs ./qchem569045.0 -- ./qchem569045.-1
rm -rf ./qchem569045
