You are running Q-Chem version: 5.4.0

#
# job setting
#
local host:  exp-2-28
current dir: /expanse/lustre/scratch/theleonzhang/temp_project/Hydrogenated_Impropers_Test
input file:  Methylthiophene_Phi_60_Theta_230_Methylthiophene_Hydrogenated_Improper.qcin
output file: 
nprocs     : 0
nthreads   : 1
#
# qchem installation setting
#
QC:          /cm/shared/apps/spack/cpu/opt/spack/linux-centos8-zen2/gcc-10.2.0/qchem-5.4-akfmr7b3t57bfs6qan3padb2wnb2i7cl
QCAUX:       /cm/shared/apps/spack/cpu/opt/spack/linux-centos8-zen2/gcc-10.2.0/qchem-5.4-akfmr7b3t57bfs6qan3padb2wnb2i7cl/qcaux
QCPROG:      /cm/shared/apps/spack/cpu/opt/spack/linux-centos8-zen2/gcc-10.2.0/qchem-5.4-akfmr7b3t57bfs6qan3padb2wnb2i7cl/exe/qcprog.exe_s
QCPROG_S:    /cm/shared/apps/spack/cpu/opt/spack/linux-centos8-zen2/gcc-10.2.0/qchem-5.4-akfmr7b3t57bfs6qan3padb2wnb2i7cl/exe/qcprog.exe_s
PARALLEL:    -DSERIAL
QCMPI:       mpich
#
# qchem directory setting
#
qcrun:       qchem1909490
QCSCRATCH:   .
QCLOCALSCR:  
QCTMPDIR:    .
QCFILEPREF:  ./qchem1909490
QCSAVEDIR:   
workdirs:    ./qchem1909490
workdir0:    ./qchem1909490
partmpdirs =  
#
# parallel setting
#
QCRSH:           ssh
QCMPI:           mpich
QCMPIRUN:        /cm/shared/apps/spack/cpu/opt/spack/linux-centos8-zen2/gcc-10.2.0/qchem-5.4-akfmr7b3t57bfs6qan3padb2wnb2i7cl/bin/mpi/mpirun_qchem
QCMACHINEFILE:   ./qchem1909490/hostfile

#
# env setting
#
exported envs:   QC QCAUX QCSCRATCH QCRUNNAME QCFILEPREF QCPROG QCPROG_S GUIFILE

Running Job 1 of 1 Methylthiophene_Phi_60_Theta_230_Methylthiophene_Hydrogenated_Improper.qcin
qchem Methylthiophene_Phi_60_Theta_230_Methylthiophene_Hydrogenated_Improper.qcin_1909490.0 ./qchem1909490/ 0
/cm/shared/apps/spack/cpu/opt/spack/linux-centos8-zen2/gcc-10.2.0/qchem-5.4-akfmr7b3t57bfs6qan3padb2wnb2i7cl/exe/qcprog.exe_s Methylthiophene_Phi_60_Theta_230_Methylthiophene_Hydrogenated_Improper.qcin_1909490.0 ./qchem1909490/
                  Welcome to Q-Chem
     A Quantum Leap Into The Future Of Chemistry


 Q-Chem 5.4, Q-Chem, Inc., Pleasanton, CA (2021)

 License issued to: University of California, San Diego (site)

 E. Epifanovsky,  A. T. B. Gilbert,  Xintian Feng,  Joonho Lee,  Yuezhi Mao,  
 N. Mardirossian,  P. Pokhilko,  A. White,  M. Wormit,  M. P. Coons,  
 A. L. Dempwolff,  Zhengting Gan,  D. Hait,  P. R. Horn,  L. D. Jacobson,  
 I. Kaliman,  J. Kussmann,  A. W. Lange,  Ka Un Lao,  D. S. Levine,  Jie Liu,  
 S. C. McKenzie,  A. F. Morrison,  K. Nanda,  F. Plasser,  D. R. Rehn,  
 M. L. Vidal,  Zhi-Qiang You,  Ying Zhu,  B. Alam,  B. Albrecht,  
 A. Aldossary,  E. Alguire,  J. H. Andersen,  D. Barton,  K. Begam,  A. Behn,  
 Y. A. Bernard,  E. J. Berquist,  H. Burton,  A. Carreras,  K. Carter-Fenk,  
 R. Chakraborty,  A. D. Chien,  K. D. Closser,  V. Cofer-Shabica,  
 S. Dasgupta,  Jia Deng,  M. de Wergifosse,  M. Diedenhofen,  Hainam Do,  
 S. Ehlert,  Po-Tung Fang,  S. Fatehi,  Qingguo Feng,  J. Gayvert,  
 Qinghui Ge,  G. Gidofalvi,  M. Goldey,  J. Gomes,  C. Gonzalez-Espinoza,  
 S. Gulania,  A. Gunina,  M. W. D. Hanson-Heine,  P. H. P. Harbach,  
 A. W. Hauser,  M. F. Herbst,  M. Hernandez Vera,  M. Hodecker,  
 Z. C. Holden,  S. Houck,  Xunkun Huang,  Kerwin Hui,  B. C. Huynh,  
 M. Ivanov,  Hyunjun Ji,  Hanjie Jiang,  B. Kaduk,  S. Kaehler,  
 K. Khistyaev,  Jaehoon Kim,  P. Klunzinger,  Z. Koczor-Benda,  
 Joong Hoon Koh,  D. Kosenkov,  L. Koulias,  T. Kowalczyk,  C. M. Krauter,  
 K. Kue,  A. Kunitsa,  T. Kus,  A. Landau,  K. V. Lawler,  D. Lefrancois,  
 S. Lehtola,  Rain Li,  Yi-Pei Li,  Jiashu Liang,  M. Liebenthal,  
 Hung-Hsuan Lin,  You-Sheng Lin,  Fenglai Liu,  Kuan-Yu Liu,  
 M. Loipersberger,  A. Luenser,  A. Manjanath,  P. Manohar,  E. Mansoor,  
 S. F. Manzer,  Shan-Ping Mao,  A. V. Marenich,  T. Markovich,  S. Mason,  
 S. A. Maurer,  P. F. McLaughlin,  M. F. S. J. Menger,  J.-M. Mewes,  
 S. A. Mewes,  P. Morgante,  J. W. Mullinax,  T. S. Nguyen-Beck,  
 K. J. Oosterbaan,  G. Paran,  Alexander C. Paul,  Suranjan K. Paul,  
 F. Pavosevic,  Zheng Pei,  S. Prager,  E. I. Proynov,  E. Ramos,  B. Rana,  
 A. E. Rask,  A. Rettig,  R. M. Richard,  F. Rob,  E. Rossomme,  T. Scheele,  
 M. Scheurer,  M. Schneider,  N. Sergueev,  S. M. Sharada,  W. Skomorowski,  
 D. W. Small,  C. J. Stein,  Yu-Chuan Su,  E. J. Sundstrom,  Zhen Tao,  
 J. Thirman,  T. Tsuchimochi,  N. M. Tubman,  S. P. Veccham,  O. Vydrov,  
 J. Wenzel,  J. Witte,  A. Yamada,  Kun Yao,  S. Yeganeh,  S. R. Yost,  
 A. Zech,  Igor Ying Zhang,  Xing Zhang,  Yu Zhang,  D. Zuev,  
 A. Aspuru-Guzik,  A. T. Bell,  N. A. Besley,  K. B. Bravaya,  B. R. Brooks,  
 D. Casanova,  Jeng-Da Chai,  S. Coriani,  C. J. Cramer,  
 A. E. DePrince, III,  R. A. DiStasio Jr.,  A. Dreuw,  B. D. Dunietz,  
 T. R. Furlani,  W. A. Goddard III,  S. Grimme,  S. Hammes-Schiffer,  
 T. Head-Gordon,  W. J. Hehre,  Chao-Ping Hsu,  T.-C. Jagau,  Yousung Jung,  
 A. Klamt,  Jing Kong,  D. S. Lambrecht,  WanZhen Liang,  N. J. Mayhall,  
 C. W. McCurdy,  J. B. Neaton,  C. Ochsenfeld,  J. A. Parkhill,  R. Peverati,  
 V. A. Rassolov,  Yihan Shao,  L. V. Slipchenko,  T. Stauch,  R. P. Steele,  
 J. E. Subotnik,  A. J. W. Thom,  A. Tkatchenko,  D. G. Truhlar,  
 T. Van Voorhis,  T. A. Wesolowski,  K. B. Whaley,  H. L. Woodcock III,  
 P. M. Zimmerman,  S. Faraji,  P. M. W. Gill,  M. Head-Gordon,  
 J. M. Herbert,  A. I. Krylov

 Contributors to earlier versions of Q-Chem not listed above: 
 R. D. Adamson,  B. Austin,  R. Baer,  J. Baker,  G. J. O. Beran,  
 K. Brandhorst,  S. T. Brown,  E. F. C. Byrd,  A. K. Chakraborty,  
 G. K. L. Chan,  Chun-Min Chang,  Yunqing Chen,  C.-L. Cheng,  
 Siu Hung Chien,  D. M. Chipman,  D. L. Crittenden,  H. Dachsel,  
 R. J. Doerksen,  A. D. Dutoi,  R. G. Edgar,  J. Fosso-Tande,  
 L. Fusti-Molnar,  D. Ghosh,  A. Ghysels,  A. Golubeva-Zadorozhnaya,  
 J. Gonthier,  M. S. Gordon,  S. R. Gwaltney,  G. Hawkins,  J. E. Herr,  
 A. Heyden,  S. Hirata,  E. G. Hohenstein,  G. Kedziora,  F. J. Keil,  
 C. Kelley,  Jihan Kim,  R. A. King,  R. Z. Khaliullin,  P. P. Korambath,  
 W. Kurlancheek,  A. Laurent,  A. M. Lee,  M. S. Lee,  S. V. Levchenko,  
 Ching Yeh Lin,  D. Liotard,  E. Livshits,  R. C. Lochan,  I. Lotan,  
 L. A. Martinez-Martinez,  P. E. Maslen,  N. Nair,  D. P. O'Neill,  
 D. Neuhauser,  E. Neuscamman,  C. M. Oana,  R. Olivares-Amaya,  R. Olson,  
 T. M. Perrine,  B. Peters,  P. A. Pieniazek,  A. Prociuk,  Y. M. Rhee,  
 J. Ritchie,  M. A. Rohrdanz,  E. Rosta,  N. J. Russ,  H. F. Schaefer III,  
 M. W. Schmidt,  N. E. Schultz,  S. Sharma,  N. Shenvi,  C. D. Sherrill,  
 A. C. Simmonett,  A. Sodt,  T. Stein,  D. Stuck,  K. S. Thanthiriwatte,  
 V. Vanovschi,  L. Vogt,  Tao Wang,  A. Warshel,  M. A. Watson,  
 C. F. Williams,  Q. Wu,  X. Xu,  Jun Yang,  W. Zhang,  Yan Zhao

 Please cite Q-Chem as follows:
 Y. Shao et al., Mol. Phys. 113, 184-215 (2015)
 DOI: 10.1080/00268976.2014.952696

 Q-Chem 5.4.0 for Intel X86 EM64T Linux

 Parts of Q-Chem use Armadillo 9.800.1 (Horizon Scraper).
 http://arma.sourceforge.net/

 Q-Chem begins on Sun Jul 10 09:43:38 2022  

 Host: 
0

     Scratch files written to ./qchem1909490//
 May1621 |scratch|qcdevops|jenkins|workspace|build_RNUM    
 Processing $rem in /cm/shared/apps/spack/cpu/opt/spack/linux-centos8-zen2/gcc-10.2.0/qchem-5.4-akfmr7b3t57bfs6qan3padb2wnb2i7cl/config/preferences:
 Processing $rem in /home/theleonzhang/.qchemrc:
 Symmetry turned off for PCM/SM12/SMD calculation
 Core orbitals will be frozen

 Checking the input file for inconsistencies... 	...done.

--------------------------------------------------------------
User input:
--------------------------------------------------------------
$molecule
0 1
C	-0.584792	-0.237127	0.019119
C	0.163108	0.194673	1.118519
C	1.361608	0.886573	0.795819
H	-0.156292	0.010273	2.155219
C	1.552708	0.996873	-0.593381
S	0.231408	0.234073	-1.467681
C	2.303708	1.430473	1.833719
H	1.935008	1.217573	2.855819
H	2.424108	2.530373	1.745319
H	3.316508	0.984673	1.745319
C	-0.584792	-1.677827	0.019119
H	-1.278892	-1.678027	-0.808281
H	-1.212392	-2.381627	0.545619
H	0.140708	-2.196727	-0.589681
H	2.374808	1.471473	-1.142481
$end

$rem
JOBTYPE		SP
EXCHANGE	HF
CORRELATION	pRIMP2
BASIS		cc-pvtz
METHOD		rimp2
AUX_BASIS	rimp2-cc-pvtz
SOLVENT_METHOD	PCM
PURECART	11111
SYMMETRY	false
MEM_TOTAL	110000
SCF_CONVERGENCE = 6
THRESH=10
$end



$solvent
dielectric 4.90
$end
--------------------------------------------------------------
 ----------------------------------------------------------------
             Standard Nuclear Orientation (Angstroms)
    I     Atom           X                Y                Z
 ----------------------------------------------------------------
    1      C      -0.5847920000    -0.2371270000     0.0191190000
    2      C       0.1631080000     0.1946730000     1.1185190000
    3      C       1.3616080000     0.8865730000     0.7958190000
    4      H      -0.1562920000     0.0102730000     2.1552190000
    5      C       1.5527080000     0.9968730000    -0.5933810000
    6      S       0.2314080000     0.2340730000    -1.4676810000
    7      C       2.3037080000     1.4304730000     1.8337190000
    8      H       1.9350080000     1.2175730000     2.8558190000
    9      H       2.4241080000     2.5303730000     1.7453190000
   10      H       3.3165080000     0.9846730000     1.7453190000
   11      C      -0.5847920000    -1.6778270000     0.0191190000
   12      H      -1.2788920000    -1.6780270000    -0.8082810000
   13      H      -1.2123920000    -2.3816270000     0.5456190000
   14      H       0.1407080000    -2.1967270000    -0.5896810000
   15      H       2.3748080000     1.4714730000    -1.1424810000
 ----------------------------------------------------------------
 Nuclear Repulsion Energy =         350.96216544 hartrees
 There are       30 alpha and       30 beta electrons

 Q-Chem warning in module forms1/BasisType.C, line 2236:

 You are not using the predefined 5D/6D in this basis set.

 Requested basis set is cc-pVTZ
 There are 120 shells and 326 basis functions

 Total QAlloc Memory Limit 110000 MB
 Mega-Array Size       188 MB
 MEM_STATIC part       192 MB
 Discretize the solute cavity surface with Lebedev spheres
	Using 110 Lebedev grid points for each H atom
	Using 194 Lebedev grid points for other atoms
	Atomic van der Waals radii will be scaled by 1.20
 Remove points where switching function is < 1.0e-08
 Keep 1033 surface tesserae and discard 1205 interior tesserae
 Molecular Surface Area = 155.883 Angst**2

                       Distance Matrix (Angstroms)
             C (  1)   C (  2)   C (  3)   H (  4)   C (  5)   S (  6)
   C (  2)  1.398029
   C (  3)  2.377906  1.421008
   H (  4)  2.192656  1.100348  2.218083
   C (  5)  2.542994  2.346298  1.406614  3.383617
   S (  6)  1.760337  2.587402  2.612765  3.650452  1.758436
   C (  7)  3.796985  2.573107  1.503535  2.858659  2.577368  4.077382
   H (  8)  4.063547  2.684058  2.163781  2.514349  3.477333  4.749966
   H (  9)  4.437601  3.310664  2.175439  3.630067  2.929245  4.517111
   H ( 10)  4.437646  3.310726  2.175502  3.630126  2.929276  4.517146
   C ( 11)  1.440700  2.296582  3.311779  2.756124  3.478230  2.555801
   H ( 12)  1.800711  3.049414  4.015290  3.590671  3.901183  2.524270
   H ( 13)  2.295640  2.976161  4.167638  3.070398  4.511913  3.602752
   H ( 14)  2.176470  2.938919  3.594015  3.534619  3.491825  2.586097
   H ( 15)  3.609413  3.410859  2.263998  4.406404  1.096633  2.496213
             C (  7)   H (  8)   H (  9)   H ( 10)   C ( 11)   H ( 12)
   H (  8)  1.107228
   H (  9)  1.109996  1.787700
   H ( 10)  1.110097  1.787735  1.784815
   C ( 11)  4.614947  4.772798  5.453640  5.028799
   H ( 12)  5.429361  5.669152  6.159847  5.893093  1.079984
   H ( 13)  5.343619  5.310122  6.228255  5.769072  1.080009  1.527259
   H ( 14)  4.869088  5.171888  5.745574  5.065495  1.079928  1.527121
   H ( 15)  2.977331  4.030421  3.076213  3.076225  4.475113  4.835345
             H ( 13)   H ( 14)
   H ( 14)  1.775943
   H ( 15)  5.528478  4.330414
 
 Requested basis set is rimp2-cc-pVTZ
 There are 250 shells and 848 basis functions
 A cutoff of  1.0D-10 yielded   6326 shell pairs
 There are     46512 function pairs (     59816 Cartesian)
 Smallest overlap matrix eigenvalue = 1.24E-04

 Scale SEOQF with 1.000000e-01/1.000000e-01/1.000000e-01

 Standard Electronic Orientation quadrupole field applied
 Nucleus-field energy     =    -0.0000000016 hartrees
 Guess from superposition of atomic densities
 Warning:  Energy on first SCF cycle will be non-variational
 SAD guess density has 60.000000 electrons

 -----------------------------------------------------------------------
  General SCF calculation program by
  Eric Jon Sundstrom, Paul Horn, Yuezhi Mao, Dmitri Zuev, Alec White,
  David Stuck, Shaama M.S., Shane Yost, Joonho Lee, David Small,
  Daniel Levine, Susi Lehtola, Hugh Burton, Evgeny Epifanovsky,
  Bang C. Huynh
 -----------------------------------------------------------------------
 Hartree-Fock
 A restricted SCF calculation will be
 performed using DIIS
 SCF converges when DIIS error is below 1.0e-06
 ---------------------------------------
  Cycle       Energy         DIIS error
 ---------------------------------------
    1    -632.2086754676      2.96e-02  
    2    -629.2627929913      1.94e-03  
    3    -629.3339009950      7.12e-04  
    4    -629.3421016000      3.73e-04  
    5    -629.3446402636      6.75e-05  
    6    -629.3448335841      3.71e-05  
    7    -629.3448982772      1.58e-05  
    8    -629.3449235959      8.92e-06  
    9    -629.3449288849      3.07e-06  
   10    -629.3449295882      1.21e-06  
   11    -629.3449296962      5.24e-07  Convergence criterion met
 ---------------------------------------
 SCF time:   CPU 162.59s  wall 163.00s 

************** Final PCM Free Energy Summary **************
 G_electrostatic  =      -0.00580599 hartree =      -3.64331088 kcal/mol
 G_cavitation     =       0.00000000 hartree =       0.00000000 kcal/mol
 G_dispersion     =       0.00000000 hartree =       0.00000000 kcal/mol
 G_repulsion      =       0.00000000 hartree =       0.00000000 kcal/mol
 --------------------------------------------------
 Non-electrostatic Free Energy =       0.00000000 hartree =       0.00000000 kcal/mol
 Total                         =      -0.00580599 hartree =      -3.64331088 kcal/mol
 --------------------------------------------------
 SCF Energy (H0 + V/2)                       =    -629.34492970 
 Solute Internal Energy (H0)                 =    -629.33912371 
 Total Free Energy (H0 + V/2 + non-elec)     =    -629.34492970 hartree
                                             = -394919.90391020 kcal/mol
***********************************************************

 SCF   energy in the final basis set =     -629.3449296962
 Total energy in the final basis set =     -629.3449296962


 --------------------------------------------------------------
  Generalized many-body perturbation theory program
  by Joonho Lee, Fazle Rob, Xintian Feng, Evgeny Epifanovsky

 No regularization used 
 (reg. param. = 0.0000e+00)
  (P|Q)^-1/2 Time:  CPU 0.48 s  wall 0.48 s

 In RI-MP2 calculation: 
 # of frozen core orbitals: 11

 Components of the RIMP2 correlation energy:
        aaaa    correlation energy =        -0.1476817737 a.u.
        abab    correlation energy =        -0.8947655035 a.u.
        bbbb    correlation energy =        -0.1476817737 a.u.
        non-Brillouin singles      =        -0.0000000000 a.u.
        total same-spin energy     =        -0.2953635474 a.u.
        total opposite-spin energy =        -0.8947655035 a.u.

 Total  RIMP2   correlation energy =        -1.1901290509 a.u.
        RIMP2         total energy =      -630.5350587471 a.u.

 RI-MP2 Energy Time:  CPU 11.21 s  wall 11.23 s
 
 --------------------------------------------------------------
 
                    Orbital Energies (a.u.)
 --------------------------------------------------------------
 
 Alpha MOs
 -- Occupied --
-91.9762 -11.2843 -11.2518 -11.2487 -11.2401 -11.2286 -11.2068  -8.9770
 -6.6578  -6.6570  -6.6567  -1.1735  -1.0564  -0.9962  -0.9433  -0.8794
 -0.7545  -0.7288  -0.6421  -0.5941  -0.5789  -0.5683  -0.5517  -0.5451
 -0.5180  -0.4747  -0.4530  -0.4327  -0.3341  -0.2979
 -- Virtual --
  0.0633   0.1417   0.1539   0.1765   0.1820   0.1915   0.2028   0.2249
  0.2272   0.2449   0.2467   0.2574   0.2943   0.2990   0.3396   0.3530
  0.3688   0.3890   0.4088   0.4164   0.4303   0.4464   0.4615   0.4705
  0.4834   0.5024   0.5060   0.5327   0.5391   0.5539   0.5675   0.5688
  0.5815   0.6007   0.6074   0.6152   0.6252   0.6397   0.6412   0.6491
  0.6536   0.6702   0.6919   0.7350   0.7357   0.7527   0.7613   0.7807
  0.7971   0.8115   0.8283   0.8448   0.8660   0.8741   0.8835   0.9189
  0.9535   0.9939   1.0044   1.0248   1.0437   1.0488   1.0727   1.0850
  1.1077   1.1381   1.1439   1.1534   1.1624   1.1735   1.1979   1.2114
  1.2285   1.2505   1.2555   1.2713   1.2823   1.2918   1.3107   1.3394
  1.3528   1.3679   1.3779   1.4057   1.4119   1.4305   1.4479   1.4688
  1.4920   1.5093   1.5195   1.5289   1.5407   1.5521   1.5823   1.5985
  1.6075   1.6277   1.6448   1.6593   1.6731   1.6872   1.7022   1.7412
  1.7675   1.7891   1.7972   1.8415   1.8491   1.9188   1.9282   1.9561
  1.9712   2.0403   2.0638   2.1009   2.1663   2.1911   2.2026   2.2448
  2.2533   2.2718   2.3545   2.3924   2.4329   2.4617   2.5334   2.5604
  2.5690   2.5965   2.6429   2.6551   2.6656   2.7069   2.7195   2.7376
  2.7612   2.7678   2.8001   2.8155   2.8349   2.8440   2.8465   2.8994
  2.9144   2.9274   2.9674   2.9831   3.0096   3.0320   3.0387   3.0721
  3.1023   3.1139   3.1242   3.1360   3.1542   3.1653   3.1855   3.2017
  3.2180   3.2290   3.2467   3.2563   3.2808   3.2964   3.3094   3.3174
  3.3407   3.3546   3.3756   3.3801   3.3826   3.4028   3.4204   3.4407
  3.4557   3.4665   3.5011   3.5078   3.5272   3.5417   3.5624   3.5652
  3.5767   3.6003   3.6265   3.6345   3.6487   3.6590   3.6869   3.6912
  3.7089   3.7149   3.7346   3.7701   3.7801   3.7947   3.8001   3.8119
  3.8412   3.8603   3.8895   3.8936   3.9210   3.9413   3.9543   3.9802
  3.9847   4.0128   4.0190   4.0463   4.0566   4.0816   4.0971   4.1106
  4.1444   4.1489   4.1849   4.1980   4.2258   4.2287   4.2395   4.2691
  4.2784   4.2876   4.3155   4.3324   4.3569   4.3802   4.3839   4.4020
  4.4221   4.4355   4.4565   4.4813   4.5037   4.5439   4.5616   4.5899
  4.6058   4.6361   4.6664   4.6987   4.7096   4.7320   4.7451   4.7735
  4.8245   4.8489   4.8685   4.8826   4.9136   4.9548   5.0394   5.0852
  5.1112   5.1326   5.1572   5.1843   5.2345   5.2613   5.2831   5.3101
  5.3620   5.4050   5.4116   5.4338   5.4669   5.5077   5.5441   5.5503
  5.5939   5.6247   5.6588   5.6823   5.7028   5.8067   5.8412   5.8855
  5.9386   5.9536   6.0322   6.0866   6.2069   6.2280   6.2590   6.3488
  6.3996   6.4801   9.2466  11.8748  12.8039  13.7712  14.1473  14.2835
 --------------------------------------------------------------
 
          Ground-State Mulliken Net Atomic Charges

     Atom                 Charge (a.u.)
  ----------------------------------------
      1 C                    -0.123563
      2 C                    -0.092245
      3 C                    -0.027951
      4 H                     0.185237
      5 C                    -0.175999
      6 S                     0.011793
      7 C                    -0.268740
      8 H                     0.102106
      9 H                     0.106559
     10 H                     0.103869
     11 C                    -0.382897
     12 H                     0.107382
     13 H                     0.134559
     14 H                     0.120438
     15 H                     0.199452
  ----------------------------------------
  Sum of atomic charges =     0.000000

 -----------------------------------------------------------------
                    Cartesian Multipole Moments
 -----------------------------------------------------------------
    Charge (ESU x 10^10)
                -0.0000
    Dipole Moment (Debye)
         X       2.2212      Y       0.2687      Z       1.3616
       Tot       2.6191
    Quadrupole Moments (Debye-Ang)
        XX     -47.6616     XY       5.1602     YY     -50.0493
        XZ      -0.5829     YZ       0.4980     ZZ     -47.7733
    Octopole Moments (Debye-Ang^2)
       XXX     -76.4983    XXY      -4.0456    XYY     -26.9603
       YYY     -34.7147    XXZ      -4.9617    XYZ      -1.3682
       YYZ      -3.3526    XZZ     -25.9088    YZZ      -8.5860
       ZZZ       4.2733
    Hexadecapole Moments (Debye-Ang^3)
      XXXX    -489.0451   XXXY    -137.6856   XXYY    -137.8864
      XYYY    -145.6437   YYYY    -378.7054   XXXZ     -92.2910
      XXYZ     -24.1152   XYYZ     -33.8893   YYYZ     -50.5546
      XXZZ    -158.9083   XYZZ     -43.8907   YYZZ    -147.3547
      XZZZ     -89.6890   YZZZ     -52.0532   ZZZZ    -478.3778
 -----------------------------------------------------------------
 Total job time:  174.90s(wall), 174.15s(cpu) 
 Sun Jul 10 09:46:32 2022

        *************************************************************
        *                                                           *
        *  Thank you very much for using Q-Chem.  Have a nice day.  *
        *                                                           *
        *************************************************************


remove work dirs ./qchem1909490.0 -- ./qchem1909490.-1
rm -rf ./qchem1909490
