You are running Q-Chem version: 5.4.0

#
# job setting
#
local host:  exp-13-53
current dir: /expanse/lustre/scratch/theleonzhang/temp_project/Hydrogenated_Impropers_Test
input file:  Methylthiophene_Phi_15_Theta_180_Methylthiophene_Hydrogenated_Improper_Alternate.qcin
output file: 
nprocs     : 0
nthreads   : 1
#
# qchem installation setting
#
QC:          /cm/shared/apps/spack/cpu/opt/spack/linux-centos8-zen2/gcc-10.2.0/qchem-5.4-akfmr7b3t57bfs6qan3padb2wnb2i7cl
QCAUX:       /cm/shared/apps/spack/cpu/opt/spack/linux-centos8-zen2/gcc-10.2.0/qchem-5.4-akfmr7b3t57bfs6qan3padb2wnb2i7cl/qcaux
QCPROG:      /cm/shared/apps/spack/cpu/opt/spack/linux-centos8-zen2/gcc-10.2.0/qchem-5.4-akfmr7b3t57bfs6qan3padb2wnb2i7cl/exe/qcprog.exe_s
QCPROG_S:    /cm/shared/apps/spack/cpu/opt/spack/linux-centos8-zen2/gcc-10.2.0/qchem-5.4-akfmr7b3t57bfs6qan3padb2wnb2i7cl/exe/qcprog.exe_s
PARALLEL:    -DSERIAL
QCMPI:       mpich
#
# qchem directory setting
#
qcrun:       qchem758050
QCSCRATCH:   .
QCLOCALSCR:  
QCTMPDIR:    .
QCFILEPREF:  ./qchem758050
QCSAVEDIR:   
workdirs:    ./qchem758050
workdir0:    ./qchem758050
partmpdirs =  
#
# parallel setting
#
QCRSH:           ssh
QCMPI:           mpich
QCMPIRUN:        /cm/shared/apps/spack/cpu/opt/spack/linux-centos8-zen2/gcc-10.2.0/qchem-5.4-akfmr7b3t57bfs6qan3padb2wnb2i7cl/bin/mpi/mpirun_qchem
QCMACHINEFILE:   ./qchem758050/hostfile

#
# env setting
#
exported envs:   QC QCAUX QCSCRATCH QCRUNNAME QCFILEPREF QCPROG QCPROG_S GUIFILE

Running Job 1 of 1 Methylthiophene_Phi_15_Theta_180_Methylthiophene_Hydrogenated_Improper_Alternate.qcin
qchem Methylthiophene_Phi_15_Theta_180_Methylthiophene_Hydrogenated_Improper_Alternate.qcin_758050.0 ./qchem758050/ 0
/cm/shared/apps/spack/cpu/opt/spack/linux-centos8-zen2/gcc-10.2.0/qchem-5.4-akfmr7b3t57bfs6qan3padb2wnb2i7cl/exe/qcprog.exe_s Methylthiophene_Phi_15_Theta_180_Methylthiophene_Hydrogenated_Improper_Alternate.qcin_758050.0 ./qchem758050/
                  Welcome to Q-Chem
     A Quantum Leap Into The Future Of Chemistry


 Q-Chem 5.4, Q-Chem, Inc., Pleasanton, CA (2021)

 License issued to: University of California, San Diego (site)

 E. Epifanovsky,  A. T. B. Gilbert,  Xintian Feng,  Joonho Lee,  Yuezhi Mao,  
 N. Mardirossian,  P. Pokhilko,  A. White,  M. Wormit,  M. P. Coons,  
 A. L. Dempwolff,  Zhengting Gan,  D. Hait,  P. R. Horn,  L. D. Jacobson,  
 I. Kaliman,  J. Kussmann,  A. W. Lange,  Ka Un Lao,  D. S. Levine,  Jie Liu,  
 S. C. McKenzie,  A. F. Morrison,  K. Nanda,  F. Plasser,  D. R. Rehn,  
 M. L. Vidal,  Zhi-Qiang You,  Ying Zhu,  B. Alam,  B. Albrecht,  
 A. Aldossary,  E. Alguire,  J. H. Andersen,  D. Barton,  K. Begam,  A. Behn,  
 Y. A. Bernard,  E. J. Berquist,  H. Burton,  A. Carreras,  K. Carter-Fenk,  
 R. Chakraborty,  A. D. Chien,  K. D. Closser,  V. Cofer-Shabica,  
 S. Dasgupta,  Jia Deng,  M. de Wergifosse,  M. Diedenhofen,  Hainam Do,  
 S. Ehlert,  Po-Tung Fang,  S. Fatehi,  Qingguo Feng,  J. Gayvert,  
 Qinghui Ge,  G. Gidofalvi,  M. Goldey,  J. Gomes,  C. Gonzalez-Espinoza,  
 S. Gulania,  A. Gunina,  M. W. D. Hanson-Heine,  P. H. P. Harbach,  
 A. W. Hauser,  M. F. Herbst,  M. Hernandez Vera,  M. Hodecker,  
 Z. C. Holden,  S. Houck,  Xunkun Huang,  Kerwin Hui,  B. C. Huynh,  
 M. Ivanov,  Hyunjun Ji,  Hanjie Jiang,  B. Kaduk,  S. Kaehler,  
 K. Khistyaev,  Jaehoon Kim,  P. Klunzinger,  Z. Koczor-Benda,  
 Joong Hoon Koh,  D. Kosenkov,  L. Koulias,  T. Kowalczyk,  C. M. Krauter,  
 K. Kue,  A. Kunitsa,  T. Kus,  A. Landau,  K. V. Lawler,  D. Lefrancois,  
 S. Lehtola,  Rain Li,  Yi-Pei Li,  Jiashu Liang,  M. Liebenthal,  
 Hung-Hsuan Lin,  You-Sheng Lin,  Fenglai Liu,  Kuan-Yu Liu,  
 M. Loipersberger,  A. Luenser,  A. Manjanath,  P. Manohar,  E. Mansoor,  
 S. F. Manzer,  Shan-Ping Mao,  A. V. Marenich,  T. Markovich,  S. Mason,  
 S. A. Maurer,  P. F. McLaughlin,  M. F. S. J. Menger,  J.-M. Mewes,  
 S. A. Mewes,  P. Morgante,  J. W. Mullinax,  T. S. Nguyen-Beck,  
 K. J. Oosterbaan,  G. Paran,  Alexander C. Paul,  Suranjan K. Paul,  
 F. Pavosevic,  Zheng Pei,  S. Prager,  E. I. Proynov,  E. Ramos,  B. Rana,  
 A. E. Rask,  A. Rettig,  R. M. Richard,  F. Rob,  E. Rossomme,  T. Scheele,  
 M. Scheurer,  M. Schneider,  N. Sergueev,  S. M. Sharada,  W. Skomorowski,  
 D. W. Small,  C. J. Stein,  Yu-Chuan Su,  E. J. Sundstrom,  Zhen Tao,  
 J. Thirman,  T. Tsuchimochi,  N. M. Tubman,  S. P. Veccham,  O. Vydrov,  
 J. Wenzel,  J. Witte,  A. Yamada,  Kun Yao,  S. Yeganeh,  S. R. Yost,  
 A. Zech,  Igor Ying Zhang,  Xing Zhang,  Yu Zhang,  D. Zuev,  
 A. Aspuru-Guzik,  A. T. Bell,  N. A. Besley,  K. B. Bravaya,  B. R. Brooks,  
 D. Casanova,  Jeng-Da Chai,  S. Coriani,  C. J. Cramer,  
 A. E. DePrince, III,  R. A. DiStasio Jr.,  A. Dreuw,  B. D. Dunietz,  
 T. R. Furlani,  W. A. Goddard III,  S. Grimme,  S. Hammes-Schiffer,  
 T. Head-Gordon,  W. J. Hehre,  Chao-Ping Hsu,  T.-C. Jagau,  Yousung Jung,  
 A. Klamt,  Jing Kong,  D. S. Lambrecht,  WanZhen Liang,  N. J. Mayhall,  
 C. W. McCurdy,  J. B. Neaton,  C. Ochsenfeld,  J. A. Parkhill,  R. Peverati,  
 V. A. Rassolov,  Yihan Shao,  L. V. Slipchenko,  T. Stauch,  R. P. Steele,  
 J. E. Subotnik,  A. J. W. Thom,  A. Tkatchenko,  D. G. Truhlar,  
 T. Van Voorhis,  T. A. Wesolowski,  K. B. Whaley,  H. L. Woodcock III,  
 P. M. Zimmerman,  S. Faraji,  P. M. W. Gill,  M. Head-Gordon,  
 J. M. Herbert,  A. I. Krylov

 Contributors to earlier versions of Q-Chem not listed above: 
 R. D. Adamson,  B. Austin,  R. Baer,  J. Baker,  G. J. O. Beran,  
 K. Brandhorst,  S. T. Brown,  E. F. C. Byrd,  A. K. Chakraborty,  
 G. K. L. Chan,  Chun-Min Chang,  Yunqing Chen,  C.-L. Cheng,  
 Siu Hung Chien,  D. M. Chipman,  D. L. Crittenden,  H. Dachsel,  
 R. J. Doerksen,  A. D. Dutoi,  R. G. Edgar,  J. Fosso-Tande,  
 L. Fusti-Molnar,  D. Ghosh,  A. Ghysels,  A. Golubeva-Zadorozhnaya,  
 J. Gonthier,  M. S. Gordon,  S. R. Gwaltney,  G. Hawkins,  J. E. Herr,  
 A. Heyden,  S. Hirata,  E. G. Hohenstein,  G. Kedziora,  F. J. Keil,  
 C. Kelley,  Jihan Kim,  R. A. King,  R. Z. Khaliullin,  P. P. Korambath,  
 W. Kurlancheek,  A. Laurent,  A. M. Lee,  M. S. Lee,  S. V. Levchenko,  
 Ching Yeh Lin,  D. Liotard,  E. Livshits,  R. C. Lochan,  I. Lotan,  
 L. A. Martinez-Martinez,  P. E. Maslen,  N. Nair,  D. P. O'Neill,  
 D. Neuhauser,  E. Neuscamman,  C. M. Oana,  R. Olivares-Amaya,  R. Olson,  
 T. M. Perrine,  B. Peters,  P. A. Pieniazek,  A. Prociuk,  Y. M. Rhee,  
 J. Ritchie,  M. A. Rohrdanz,  E. Rosta,  N. J. Russ,  H. F. Schaefer III,  
 M. W. Schmidt,  N. E. Schultz,  S. Sharma,  N. Shenvi,  C. D. Sherrill,  
 A. C. Simmonett,  A. Sodt,  T. Stein,  D. Stuck,  K. S. Thanthiriwatte,  
 V. Vanovschi,  L. Vogt,  Tao Wang,  A. Warshel,  M. A. Watson,  
 C. F. Williams,  Q. Wu,  X. Xu,  Jun Yang,  W. Zhang,  Yan Zhao

 Please cite Q-Chem as follows:
 Y. Shao et al., Mol. Phys. 113, 184-215 (2015)
 DOI: 10.1080/00268976.2014.952696

 Q-Chem 5.4.0 for Intel X86 EM64T Linux

 Parts of Q-Chem use Armadillo 9.800.1 (Horizon Scraper).
 http://arma.sourceforge.net/

 Q-Chem begins on Sun Jul 10 10:40:28 2022  

 Host: 
0

     Scratch files written to ./qchem758050//
 May1621 |scratch|qcdevops|jenkins|workspace|build_RNUM    
 Processing $rem in /cm/shared/apps/spack/cpu/opt/spack/linux-centos8-zen2/gcc-10.2.0/qchem-5.4-akfmr7b3t57bfs6qan3padb2wnb2i7cl/config/preferences:
 Processing $rem in /home/theleonzhang/.qchemrc:
 Symmetry turned off for PCM/SM12/SMD calculation
 Core orbitals will be frozen

 Checking the input file for inconsistencies... 	...done.

--------------------------------------------------------------
User input:
--------------------------------------------------------------
$molecule
0 1
C	-0.180426	-0.553191	0.015606
C	0.043074	0.281009	1.115006
C	0.401274	1.617709	0.792306
H	-0.052326	-0.075291	2.151706
C	0.458474	1.830809	-0.596894
S	0.063474	0.357109	-1.471194
C	0.682874	2.668409	1.830206
H	0.572674	2.257309	2.852306
H	-0.009726	3.531409	1.741806
H	1.714174	3.069409	1.741806
C	-0.180426	-1.993891	0.015606
H	0.899574	-1.993591	0.015706
H	-0.180526	-2.697691	0.834806
H	-0.180426	-2.512791	-0.931494
H	0.704174	2.747709	-1.145994
$end

$rem
JOBTYPE		SP
EXCHANGE	HF
CORRELATION	pRIMP2
BASIS		cc-pvtz
METHOD		rimp2
AUX_BASIS	rimp2-cc-pvtz
SOLVENT_METHOD	PCM
PURECART	11111
SYMMETRY	false
MEM_TOTAL	110000
SCF_CONVERGENCE = 6
THRESH=10
$end



$solvent
dielectric 4.90
$end
--------------------------------------------------------------
 ----------------------------------------------------------------
             Standard Nuclear Orientation (Angstroms)
    I     Atom           X                Y                Z
 ----------------------------------------------------------------
    1      C      -0.1804260000    -0.5531910000     0.0156060000
    2      C       0.0430740000     0.2810090000     1.1150060000
    3      C       0.4012740000     1.6177090000     0.7923060000
    4      H      -0.0523260000    -0.0752910000     2.1517060000
    5      C       0.4584740000     1.8308090000    -0.5968940000
    6      S       0.0634740000     0.3571090000    -1.4711940000
    7      C       0.6828740000     2.6684090000     1.8302060000
    8      H       0.5726740000     2.2573090000     2.8523060000
    9      H      -0.0097260000     3.5314090000     1.7418060000
   10      H       1.7141740000     3.0694090000     1.7418060000
   11      C      -0.1804260000    -1.9938910000     0.0156060000
   12      H       0.8995740000    -1.9935910000     0.0157060000
   13      H      -0.1805260000    -2.6976910000     0.8348060000
   14      H      -0.1804260000    -2.5127910000    -0.9314940000
   15      H       0.7041740000     2.7477090000    -1.1459940000
 ----------------------------------------------------------------
 Nuclear Repulsion Energy =         345.05803721 hartrees
 There are       30 alpha and       30 beta electrons

 Q-Chem warning in module forms1/BasisType.C, line 2236:

 You are not using the predefined 5D/6D in this basis set.

 Requested basis set is cc-pVTZ
 There are 120 shells and 326 basis functions

 Total QAlloc Memory Limit 110000 MB
 Mega-Array Size       188 MB
 MEM_STATIC part       192 MB
 Discretize the solute cavity surface with Lebedev spheres
	Using 110 Lebedev grid points for each H atom
	Using 194 Lebedev grid points for other atoms
	Atomic van der Waals radii will be scaled by 1.20
 Remove points where switching function is < 1.0e-08
 Keep 1054 surface tesserae and discard 1184 interior tesserae
 Molecular Surface Area = 158.374 Angst**2

                       Distance Matrix (Angstroms)
             C (  1)   C (  2)   C (  3)   H (  4)   C (  5)   S (  6)
   C (  2)  1.398042
   C (  3)  2.377908  1.420989
   H (  4)  2.192652  1.100363  2.218101
   C (  5)  2.542991  2.346282  1.406613  3.383628
   S (  6)  1.760315  2.587400  2.612787  3.650450  1.758470
   C (  7)  3.796942  2.573040  1.503498  2.858631  2.577352  4.077377
   H (  8)  4.063611  2.684110  2.163808  2.514456  3.477344  4.750021
   H (  9)  4.437664  3.310705  2.175481  3.630168  2.929295  4.517179
   H ( 10)  4.437624  3.310684  2.175475  3.630107  2.929237  4.517162
   C ( 11)  1.440700  2.536494  3.739691  2.874084  3.925771  2.792358
   H ( 12)  1.800320  2.667557  3.727318  3.024646  3.898190  2.904432
   H ( 13)  2.295641  3.000194  4.354650  2.937285  4.792223  3.835228
   H ( 14)  2.176472  3.470365  4.513412  3.932421  4.403068  2.930374
   H ( 15)  3.609401  3.410833  2.263991  4.406410  1.096624  2.496241
             C (  7)   H (  8)   H (  9)   H ( 10)   C ( 11)   H ( 12)
   H (  8)  1.107175
   H (  9)  1.110080  1.787661
   H ( 10)  1.110043  1.787663  1.784734
   C ( 11)  5.076918  5.165920  5.791187  5.675058
   H ( 12)  5.007356  5.120870  5.859341  5.410819  1.080000
   H ( 13)  5.525514  5.402744  6.297103  6.137750  1.080011  1.527514
   H ( 14)  5.934400  6.134994  6.611205  6.472789  1.079933  1.527467
   H ( 15)  2.977332  4.030408  3.076236  3.076196  4.961311  4.885453
             H ( 13)   H ( 14)
   H ( 14)  1.775951
   H ( 15)  5.861625  5.338669
 
 Requested basis set is rimp2-cc-pVTZ
 There are 250 shells and 848 basis functions
 A cutoff of  1.0D-10 yielded   6180 shell pairs
 There are     45264 function pairs (     58206 Cartesian)
 Smallest overlap matrix eigenvalue = 9.71E-05

 Scale SEOQF with 1.000000e-01/1.000000e-01/1.000000e-01

 Standard Electronic Orientation quadrupole field applied
 Nucleus-field energy     =     0.0000000021 hartrees
 Guess from superposition of atomic densities
 Warning:  Energy on first SCF cycle will be non-variational
 SAD guess density has 60.000000 electrons

 -----------------------------------------------------------------------
  General SCF calculation program by
  Eric Jon Sundstrom, Paul Horn, Yuezhi Mao, Dmitri Zuev, Alec White,
  David Stuck, Shaama M.S., Shane Yost, Joonho Lee, David Small,
  Daniel Levine, Susi Lehtola, Hugh Burton, Evgeny Epifanovsky,
  Bang C. Huynh
 -----------------------------------------------------------------------
 Hartree-Fock
 A restricted SCF calculation will be
 performed using DIIS
 SCF converges when DIIS error is below 1.0e-06
 ---------------------------------------
  Cycle       Energy         DIIS error
 ---------------------------------------
    1    -632.1043529901      2.92e-02  
    2    -629.3406010374      1.96e-03  
    3    -629.4113197623      7.19e-04  
    4    -629.4192361685      3.67e-04  
    5    -629.4215880328      6.22e-05  
    6    -629.4217212712      2.62e-05  
    7    -629.4217537582      1.12e-05  
    8    -629.4217628569      5.26e-06  
    9    -629.4217643722      1.73e-06  
   10    -629.4217645741      7.16e-07  Convergence criterion met
 ---------------------------------------
 SCF time:   CPU 143.93s  wall 144.00s 

************** Final PCM Free Energy Summary **************
 G_electrostatic  =      -0.00574500 hartree =      -3.60504436 kcal/mol
 G_cavitation     =       0.00000000 hartree =       0.00000000 kcal/mol
 G_dispersion     =       0.00000000 hartree =       0.00000000 kcal/mol
 G_repulsion      =       0.00000000 hartree =       0.00000000 kcal/mol
 --------------------------------------------------
 Non-electrostatic Free Energy =       0.00000000 hartree =       0.00000000 kcal/mol
 Total                         =      -0.00574500 hartree =      -3.60504436 kcal/mol
 --------------------------------------------------
 SCF Energy (H0 + V/2)                       =    -629.42176457 
 Solute Internal Energy (H0)                 =    -629.41601957 
 Total Free Energy (H0 + V/2 + non-elec)     =    -629.42176457 hartree
                                             = -394968.11852377 kcal/mol
***********************************************************

 SCF   energy in the final basis set =     -629.4217645741
 Total energy in the final basis set =     -629.4217645741


 --------------------------------------------------------------
  Generalized many-body perturbation theory program
  by Joonho Lee, Fazle Rob, Xintian Feng, Evgeny Epifanovsky

 No regularization used 
 (reg. param. = 0.0000e+00)
  (P|Q)^-1/2 Time:  CPU 0.48 s  wall 0.48 s

 In RI-MP2 calculation: 
 # of frozen core orbitals: 11

 Components of the RIMP2 correlation energy:
        aaaa    correlation energy =        -0.1451528664 a.u.
        abab    correlation energy =        -0.8853172323 a.u.
        bbbb    correlation energy =        -0.1451528664 a.u.
        non-Brillouin singles      =        -0.0000000000 a.u.
        total same-spin energy     =        -0.2903057328 a.u.
        total opposite-spin energy =        -0.8853172323 a.u.

 Total  RIMP2   correlation energy =        -1.1756229651 a.u.
        RIMP2         total energy =      -630.5973875392 a.u.

 RI-MP2 Energy Time:  CPU 11.04 s  wall 11.07 s
 
 --------------------------------------------------------------
 
                    Orbital Energies (a.u.)
 --------------------------------------------------------------
 
 Alpha MOs
 -- Occupied --
-91.9790 -11.2855 -11.2492 -11.2471 -11.2264 -11.2228 -11.2220  -8.9788
 -6.6598  -6.6592  -6.6586  -1.1614  -1.0567  -0.9969  -0.9419  -0.8822
 -0.7442  -0.7189  -0.6496  -0.5865  -0.5766  -0.5664  -0.5540  -0.5466
 -0.5064  -0.4946  -0.4663  -0.4575  -0.3388  -0.2880
 -- Virtual --
  0.1099   0.1450   0.1501   0.1743   0.1876   0.1937   0.2060   0.2214
  0.2247   0.2443   0.2475   0.2594   0.2937   0.3300   0.3447   0.3543
  0.3842   0.3916   0.3992   0.4208   0.4355   0.4619   0.4674   0.4840
  0.5000   0.5132   0.5194   0.5340   0.5356   0.5608   0.5711   0.5931
  0.5980   0.6062   0.6154   0.6207   0.6325   0.6429   0.6461   0.6492
  0.6511   0.6673   0.6862   0.6957   0.7200   0.7420   0.7737   0.7901
  0.8137   0.8263   0.8393   0.8486   0.8689   0.8927   0.8971   0.9397
  0.9487   0.9771   1.0023   1.0205   1.0339   1.0548   1.0720   1.0738
  1.0813   1.0996   1.1103   1.1173   1.1379   1.1593   1.1715   1.2061
  1.2401   1.2465   1.2564   1.2640   1.2749   1.2902   1.3150   1.3271
  1.3681   1.3774   1.3942   1.4173   1.4339   1.4446   1.4616   1.4808
  1.4835   1.5050   1.5110   1.5306   1.5430   1.5498   1.5514   1.5837
  1.6011   1.6272   1.6454   1.6701   1.6876   1.7026   1.7244   1.7496
  1.7704   1.7917   1.8063   1.8348   1.8834   1.9184   1.9402   1.9689
  2.0252   2.0513   2.1052   2.1294   2.1827   2.1935   2.2318   2.2579
  2.2836   2.3045   2.3233   2.4132   2.4425   2.4577   2.5004   2.5383
  2.5591   2.5864   2.6302   2.6541   2.6719   2.7057   2.7312   2.7385
  2.7590   2.7631   2.7747   2.7957   2.8173   2.8407   2.8604   2.8893
  2.9008   2.9298   2.9666   2.9937   3.0239   3.0317   3.0485   3.0844
  3.0908   3.1108   3.1180   3.1292   3.1568   3.1584   3.1735   3.1815
  3.2109   3.2416   3.2620   3.2739   3.2863   3.3010   3.3164   3.3326
  3.3364   3.3435   3.3819   3.3938   3.4021   3.4222   3.4278   3.4377
  3.4589   3.4655   3.4741   3.4887   3.5176   3.5217   3.5271   3.5450
  3.5857   3.5908   3.6068   3.6195   3.6342   3.6413   3.6554   3.6822
  3.6943   3.7003   3.7336   3.7393   3.7543   3.7714   3.7930   3.8013
  3.8141   3.8301   3.8661   3.8913   3.9086   3.9219   3.9586   3.9661
  3.9729   3.9934   4.0055   4.0383   4.0456   4.0596   4.0929   4.1049
  4.1182   4.1426   4.1707   4.2049   4.2189   4.2289   4.2495   4.2772
  4.2867   4.3028   4.3196   4.3418   4.3526   4.3766   4.4007   4.4020
  4.4096   4.4136   4.4508   4.4681   4.4722   4.5256   4.5380   4.5753
  4.5868   4.6077   4.6507   4.6799   4.6900   4.7252   4.7529   4.7874
  4.7915   4.8347   4.8699   4.8854   4.9020   4.9411   5.0774   5.1045
  5.1173   5.1297   5.1750   5.1975   5.2139   5.2623   5.2877   5.3357
  5.3736   5.4060   5.4111   5.4400   5.4802   5.5311   5.5468   5.5673
  5.5952   5.6070   5.6240   5.6609   5.6999   5.8105   5.8315   5.8702
  5.9208   6.0167   6.0744   6.1617   6.2282   6.2544   6.2988   6.3863
  6.4376   6.6007   9.1975  11.3928  12.9182  13.8145  14.1732  14.6011
 --------------------------------------------------------------
 
          Ground-State Mulliken Net Atomic Charges

     Atom                 Charge (a.u.)
  ----------------------------------------
      1 C                     0.062393
      2 C                    -0.319251
      3 C                     0.059197
      4 H                     0.174552
      5 C                    -0.284532
      6 S                     0.003496
      7 C                    -0.272821
      8 H                     0.101446
      9 H                     0.107373
     10 H                     0.107144
     11 C                    -0.378610
     12 H                     0.149055
     13 H                     0.162538
     14 H                     0.135081
     15 H                     0.192938
  ----------------------------------------
  Sum of atomic charges =     0.000000

 -----------------------------------------------------------------
                    Cartesian Multipole Moments
 -----------------------------------------------------------------
    Charge (ESU x 10^10)
                -0.0000
    Dipole Moment (Debye)
         X       1.0187      Y      -0.7542      Z       1.3909
       Tot       1.8818
    Quadrupole Moments (Debye-Ang)
        XX     -54.1057     XY       0.7358     YY     -42.3502
        XZ       0.1443     YZ       0.1465     ZZ     -48.5783
    Octopole Moments (Debye-Ang^2)
       XXX     -28.8657    XXY     -28.2480    XYY      -1.9452
       YYY     -80.7765    XXZ      -1.9967    XYZ      -0.6837
       YYZ      -3.1584    XZZ      -8.2411    YZZ     -25.1778
       ZZZ       0.6562
    Hexadecapole Moments (Debye-Ang^3)
      XXXX    -115.0352   XXXY     -78.3654   XXYY    -160.7526
      XYYY     -71.3544   YYYY    -774.1508   XXXZ     -23.4484
      XXYZ     -30.1181   XYYZ     -10.7392   YYYZ    -102.7382
      XXZZ    -107.2438   XYZZ     -20.6504   YYZZ    -204.2402
      XZZZ     -26.4264   YZZZ     -98.0694   ZZZZ    -484.0822
 -----------------------------------------------------------------
 Total job time:  156.15s(wall), 155.32s(cpu) 
 Sun Jul 10 10:43:04 2022

        *************************************************************
        *                                                           *
        *  Thank you very much for using Q-Chem.  Have a nice day.  *
        *                                                           *
        *************************************************************


remove work dirs ./qchem758050.0 -- ./qchem758050.-1
rm -rf ./qchem758050
