You are running Q-Chem version: 5.4.0

#
# job setting
#
local host:  exp-4-52
current dir: /expanse/lustre/scratch/theleonzhang/temp_project/Hydrogenated_Impropers_Test
input file:  Methylthiophene_Phi_10_Theta_240_Methylthiophene_Hydrogenated_Improper_Alternate.qcin
output file: 
nprocs     : 0
nthreads   : 1
#
# qchem installation setting
#
QC:          /cm/shared/apps/spack/cpu/opt/spack/linux-centos8-zen2/gcc-10.2.0/qchem-5.4-akfmr7b3t57bfs6qan3padb2wnb2i7cl
QCAUX:       /cm/shared/apps/spack/cpu/opt/spack/linux-centos8-zen2/gcc-10.2.0/qchem-5.4-akfmr7b3t57bfs6qan3padb2wnb2i7cl/qcaux
QCPROG:      /cm/shared/apps/spack/cpu/opt/spack/linux-centos8-zen2/gcc-10.2.0/qchem-5.4-akfmr7b3t57bfs6qan3padb2wnb2i7cl/exe/qcprog.exe_s
QCPROG_S:    /cm/shared/apps/spack/cpu/opt/spack/linux-centos8-zen2/gcc-10.2.0/qchem-5.4-akfmr7b3t57bfs6qan3padb2wnb2i7cl/exe/qcprog.exe_s
PARALLEL:    -DSERIAL
QCMPI:       mpich
#
# qchem directory setting
#
qcrun:       qchem2251462
QCSCRATCH:   .
QCLOCALSCR:  
QCTMPDIR:    .
QCFILEPREF:  ./qchem2251462
QCSAVEDIR:   
workdirs:    ./qchem2251462
workdir0:    ./qchem2251462
partmpdirs =  
#
# parallel setting
#
QCRSH:           ssh
QCMPI:           mpich
QCMPIRUN:        /cm/shared/apps/spack/cpu/opt/spack/linux-centos8-zen2/gcc-10.2.0/qchem-5.4-akfmr7b3t57bfs6qan3padb2wnb2i7cl/bin/mpi/mpirun_qchem
QCMACHINEFILE:   ./qchem2251462/hostfile

#
# env setting
#
exported envs:   QC QCAUX QCSCRATCH QCRUNNAME QCFILEPREF QCPROG QCPROG_S GUIFILE

Running Job 1 of 1 Methylthiophene_Phi_10_Theta_240_Methylthiophene_Hydrogenated_Improper_Alternate.qcin
qchem Methylthiophene_Phi_10_Theta_240_Methylthiophene_Hydrogenated_Improper_Alternate.qcin_2251462.0 ./qchem2251462/ 0
/cm/shared/apps/spack/cpu/opt/spack/linux-centos8-zen2/gcc-10.2.0/qchem-5.4-akfmr7b3t57bfs6qan3padb2wnb2i7cl/exe/qcprog.exe_s Methylthiophene_Phi_10_Theta_240_Methylthiophene_Hydrogenated_Improper_Alternate.qcin_2251462.0 ./qchem2251462/
                  Welcome to Q-Chem
     A Quantum Leap Into The Future Of Chemistry


 Q-Chem 5.4, Q-Chem, Inc., Pleasanton, CA (2021)

 License issued to: University of California, San Diego (site)

 E. Epifanovsky,  A. T. B. Gilbert,  Xintian Feng,  Joonho Lee,  Yuezhi Mao,  
 N. Mardirossian,  P. Pokhilko,  A. White,  M. Wormit,  M. P. Coons,  
 A. L. Dempwolff,  Zhengting Gan,  D. Hait,  P. R. Horn,  L. D. Jacobson,  
 I. Kaliman,  J. Kussmann,  A. W. Lange,  Ka Un Lao,  D. S. Levine,  Jie Liu,  
 S. C. McKenzie,  A. F. Morrison,  K. Nanda,  F. Plasser,  D. R. Rehn,  
 M. L. Vidal,  Zhi-Qiang You,  Ying Zhu,  B. Alam,  B. Albrecht,  
 A. Aldossary,  E. Alguire,  J. H. Andersen,  D. Barton,  K. Begam,  A. Behn,  
 Y. A. Bernard,  E. J. Berquist,  H. Burton,  A. Carreras,  K. Carter-Fenk,  
 R. Chakraborty,  A. D. Chien,  K. D. Closser,  V. Cofer-Shabica,  
 S. Dasgupta,  Jia Deng,  M. de Wergifosse,  M. Diedenhofen,  Hainam Do,  
 S. Ehlert,  Po-Tung Fang,  S. Fatehi,  Qingguo Feng,  J. Gayvert,  
 Qinghui Ge,  G. Gidofalvi,  M. Goldey,  J. Gomes,  C. Gonzalez-Espinoza,  
 S. Gulania,  A. Gunina,  M. W. D. Hanson-Heine,  P. H. P. Harbach,  
 A. W. Hauser,  M. F. Herbst,  M. Hernandez Vera,  M. Hodecker,  
 Z. C. Holden,  S. Houck,  Xunkun Huang,  Kerwin Hui,  B. C. Huynh,  
 M. Ivanov,  Hyunjun Ji,  Hanjie Jiang,  B. Kaduk,  S. Kaehler,  
 K. Khistyaev,  Jaehoon Kim,  P. Klunzinger,  Z. Koczor-Benda,  
 Joong Hoon Koh,  D. Kosenkov,  L. Koulias,  T. Kowalczyk,  C. M. Krauter,  
 K. Kue,  A. Kunitsa,  T. Kus,  A. Landau,  K. V. Lawler,  D. Lefrancois,  
 S. Lehtola,  Rain Li,  Yi-Pei Li,  Jiashu Liang,  M. Liebenthal,  
 Hung-Hsuan Lin,  You-Sheng Lin,  Fenglai Liu,  Kuan-Yu Liu,  
 M. Loipersberger,  A. Luenser,  A. Manjanath,  P. Manohar,  E. Mansoor,  
 S. F. Manzer,  Shan-Ping Mao,  A. V. Marenich,  T. Markovich,  S. Mason,  
 S. A. Maurer,  P. F. McLaughlin,  M. F. S. J. Menger,  J.-M. Mewes,  
 S. A. Mewes,  P. Morgante,  J. W. Mullinax,  T. S. Nguyen-Beck,  
 K. J. Oosterbaan,  G. Paran,  Alexander C. Paul,  Suranjan K. Paul,  
 F. Pavosevic,  Zheng Pei,  S. Prager,  E. I. Proynov,  E. Ramos,  B. Rana,  
 A. E. Rask,  A. Rettig,  R. M. Richard,  F. Rob,  E. Rossomme,  T. Scheele,  
 M. Scheurer,  M. Schneider,  N. Sergueev,  S. M. Sharada,  W. Skomorowski,  
 D. W. Small,  C. J. Stein,  Yu-Chuan Su,  E. J. Sundstrom,  Zhen Tao,  
 J. Thirman,  T. Tsuchimochi,  N. M. Tubman,  S. P. Veccham,  O. Vydrov,  
 J. Wenzel,  J. Witte,  A. Yamada,  Kun Yao,  S. Yeganeh,  S. R. Yost,  
 A. Zech,  Igor Ying Zhang,  Xing Zhang,  Yu Zhang,  D. Zuev,  
 A. Aspuru-Guzik,  A. T. Bell,  N. A. Besley,  K. B. Bravaya,  B. R. Brooks,  
 D. Casanova,  Jeng-Da Chai,  S. Coriani,  C. J. Cramer,  
 A. E. DePrince, III,  R. A. DiStasio Jr.,  A. Dreuw,  B. D. Dunietz,  
 T. R. Furlani,  W. A. Goddard III,  S. Grimme,  S. Hammes-Schiffer,  
 T. Head-Gordon,  W. J. Hehre,  Chao-Ping Hsu,  T.-C. Jagau,  Yousung Jung,  
 A. Klamt,  Jing Kong,  D. S. Lambrecht,  WanZhen Liang,  N. J. Mayhall,  
 C. W. McCurdy,  J. B. Neaton,  C. Ochsenfeld,  J. A. Parkhill,  R. Peverati,  
 V. A. Rassolov,  Yihan Shao,  L. V. Slipchenko,  T. Stauch,  R. P. Steele,  
 J. E. Subotnik,  A. J. W. Thom,  A. Tkatchenko,  D. G. Truhlar,  
 T. Van Voorhis,  T. A. Wesolowski,  K. B. Whaley,  H. L. Woodcock III,  
 P. M. Zimmerman,  S. Faraji,  P. M. W. Gill,  M. Head-Gordon,  
 J. M. Herbert,  A. I. Krylov

 Contributors to earlier versions of Q-Chem not listed above: 
 R. D. Adamson,  B. Austin,  R. Baer,  J. Baker,  G. J. O. Beran,  
 K. Brandhorst,  S. T. Brown,  E. F. C. Byrd,  A. K. Chakraborty,  
 G. K. L. Chan,  Chun-Min Chang,  Yunqing Chen,  C.-L. Cheng,  
 Siu Hung Chien,  D. M. Chipman,  D. L. Crittenden,  H. Dachsel,  
 R. J. Doerksen,  A. D. Dutoi,  R. G. Edgar,  J. Fosso-Tande,  
 L. Fusti-Molnar,  D. Ghosh,  A. Ghysels,  A. Golubeva-Zadorozhnaya,  
 J. Gonthier,  M. S. Gordon,  S. R. Gwaltney,  G. Hawkins,  J. E. Herr,  
 A. Heyden,  S. Hirata,  E. G. Hohenstein,  G. Kedziora,  F. J. Keil,  
 C. Kelley,  Jihan Kim,  R. A. King,  R. Z. Khaliullin,  P. P. Korambath,  
 W. Kurlancheek,  A. Laurent,  A. M. Lee,  M. S. Lee,  S. V. Levchenko,  
 Ching Yeh Lin,  D. Liotard,  E. Livshits,  R. C. Lochan,  I. Lotan,  
 L. A. Martinez-Martinez,  P. E. Maslen,  N. Nair,  D. P. O'Neill,  
 D. Neuhauser,  E. Neuscamman,  C. M. Oana,  R. Olivares-Amaya,  R. Olson,  
 T. M. Perrine,  B. Peters,  P. A. Pieniazek,  A. Prociuk,  Y. M. Rhee,  
 J. Ritchie,  M. A. Rohrdanz,  E. Rosta,  N. J. Russ,  H. F. Schaefer III,  
 M. W. Schmidt,  N. E. Schultz,  S. Sharma,  N. Shenvi,  C. D. Sherrill,  
 A. C. Simmonett,  A. Sodt,  T. Stein,  D. Stuck,  K. S. Thanthiriwatte,  
 V. Vanovschi,  L. Vogt,  Tao Wang,  A. Warshel,  M. A. Watson,  
 C. F. Williams,  Q. Wu,  X. Xu,  Jun Yang,  W. Zhang,  Yan Zhao

 Please cite Q-Chem as follows:
 Y. Shao et al., Mol. Phys. 113, 184-215 (2015)
 DOI: 10.1080/00268976.2014.952696

 Q-Chem 5.4.0 for Intel X86 EM64T Linux

 Parts of Q-Chem use Armadillo 9.800.1 (Horizon Scraper).
 http://arma.sourceforge.net/

 Q-Chem begins on Sun Jul 10 10:18:47 2022  

 Host: 
0

     Scratch files written to ./qchem2251462//
 May1621 |scratch|qcdevops|jenkins|workspace|build_RNUM    
 Processing $rem in /cm/shared/apps/spack/cpu/opt/spack/linux-centos8-zen2/gcc-10.2.0/qchem-5.4-akfmr7b3t57bfs6qan3padb2wnb2i7cl/config/preferences:
 Processing $rem in /home/theleonzhang/.qchemrc:
 Symmetry turned off for PCM/SM12/SMD calculation
 Core orbitals will be frozen

 Checking the input file for inconsistencies... 	...done.

--------------------------------------------------------------
User input:
--------------------------------------------------------------
$molecule
0 1
C	-0.115884	-0.566007	0.019522
C	0.034116	0.284493	1.118922
C	0.274416	1.647393	0.796222
H	-0.029984	-0.078707	2.155622
C	0.312816	1.864693	-0.592978
S	0.047816	0.362093	-1.467278
C	0.463316	2.718593	1.834122
H	0.389416	2.299393	2.856222
H	-0.301884	3.517893	1.745722
H	1.455816	3.207893	1.745722
C	-0.115884	-2.006707	0.019522
H	-0.655784	-2.006907	-0.915878
H	-0.825384	-2.710507	0.429022
H	0.704316	-2.525607	-0.454078
H	0.477616	2.799393	-1.142078
$end

$rem
JOBTYPE		SP
EXCHANGE	HF
CORRELATION	pRIMP2
BASIS		cc-pvtz
METHOD		rimp2
AUX_BASIS	rimp2-cc-pvtz
SOLVENT_METHOD	PCM
PURECART	11111
SYMMETRY	false
MEM_TOTAL	110000
SCF_CONVERGENCE = 6
THRESH=10
$end



$solvent
dielectric 4.90
$end
--------------------------------------------------------------
 ----------------------------------------------------------------
             Standard Nuclear Orientation (Angstroms)
    I     Atom           X                Y                Z
 ----------------------------------------------------------------
    1      C      -0.1158840000    -0.5660070000     0.0195220000
    2      C       0.0341160000     0.2844930000     1.1189220000
    3      C       0.2744160000     1.6473930000     0.7962220000
    4      H      -0.0299840000    -0.0787070000     2.1556220000
    5      C       0.3128160000     1.8646930000    -0.5929780000
    6      S       0.0478160000     0.3620930000    -1.4672780000
    7      C       0.4633160000     2.7185930000     1.8341220000
    8      H       0.3894160000     2.2993930000     2.8562220000
    9      H      -0.3018840000     3.5178930000     1.7457220000
   10      H       1.4558160000     3.2078930000     1.7457220000
   11      C      -0.1158840000    -2.0067070000     0.0195220000
   12      H      -0.6557840000    -2.0069070000    -0.9158780000
   13      H      -0.8253840000    -2.7105070000     0.4290220000
   14      H       0.7043160000    -2.5256070000    -0.4540780000
   15      H       0.4776160000     2.7993930000    -1.1420780000
 ----------------------------------------------------------------
 Nuclear Repulsion Energy =         344.77139217 hartrees
 There are       30 alpha and       30 beta electrons

 Q-Chem warning in module forms1/BasisType.C, line 2236:

 You are not using the predefined 5D/6D in this basis set.

 Requested basis set is cc-pVTZ
 There are 120 shells and 326 basis functions

 Total QAlloc Memory Limit 110000 MB
 Mega-Array Size       188 MB
 MEM_STATIC part       192 MB
 Discretize the solute cavity surface with Lebedev spheres
	Using 110 Lebedev grid points for each H atom
	Using 194 Lebedev grid points for other atoms
	Atomic van der Waals radii will be scaled by 1.20
 Remove points where switching function is < 1.0e-08
 Keep 1064 surface tesserae and discard 1174 interior tesserae
 Molecular Surface Area = 158.109 Angst**2

                       Distance Matrix (Angstroms)
             C (  1)   C (  2)   C (  3)   H (  4)   C (  5)   S (  6)
   C (  2)  1.398045
   C (  3)  2.377969  1.421047
   H (  4)  2.192661  1.100350  2.218118
   C (  5)  2.543077  2.346339  1.406617  3.383654
   S (  6)  1.760324  2.587400  2.612810  3.650447  1.758531
   C (  7)  3.796952  2.573046  1.503459  2.858600  2.577326  4.077373
   H (  8)  4.063584  2.684077  2.163777  2.514378  3.477328  4.749997
   H (  9)  4.437635  3.310687  2.175418  3.630080  2.929239  4.517160
   H ( 10)  4.437604  3.310646  2.175412  3.630063  2.929190  4.517124
   C ( 11)  1.440700  2.545737  3.756068  2.878799  3.942928  2.801533
   H ( 12)  1.800738  3.141160  4.141312  3.680176  4.003965  2.532046
   H ( 13)  2.295640  3.191352  4.509511  3.246564  4.824152  3.714741
   H ( 14)  2.176478  3.289401  4.377441  3.651993  4.409909  3.129917
   H ( 15)  3.609359  3.410797  2.263935  4.406353  1.096510  2.496180
             C (  7)   H (  8)   H (  9)   H ( 10)   C ( 11)   H ( 12)
   H (  8)  1.107194
   H (  9)  1.110057  1.787694
   H ( 10)  1.110083  1.787678  1.784828
   C ( 11)  5.094772  5.181186  5.790990  5.713323
   H ( 12)  5.580792  5.819399  6.142701  6.223914  1.080030
   H ( 13)  5.754145  5.697906  6.387544  6.478042  1.080007  1.527276
   H ( 14)  5.726742  5.859853  6.509643  6.186832  1.079945  1.527148
   H ( 15)  2.977331  4.030407  3.076240  3.076221  4.979975  4.943307
             H ( 13)   H ( 14)
   H ( 14)  1.775961
   H ( 15)  5.875812  5.374045
 
 Requested basis set is rimp2-cc-pVTZ
 There are 250 shells and 848 basis functions
 A cutoff of  1.0D-10 yielded   6163 shell pairs
 There are     45129 function pairs (     58033 Cartesian)
 Smallest overlap matrix eigenvalue = 9.90E-05

 Scale SEOQF with 1.000000e-01/1.000000e-01/1.000000e-01

 Standard Electronic Orientation quadrupole field applied
 Nucleus-field energy     =     0.0000000023 hartrees
 Guess from superposition of atomic densities
 Warning:  Energy on first SCF cycle will be non-variational
 SAD guess density has 60.000000 electrons

 -----------------------------------------------------------------------
  General SCF calculation program by
  Eric Jon Sundstrom, Paul Horn, Yuezhi Mao, Dmitri Zuev, Alec White,
  David Stuck, Shaama M.S., Shane Yost, Joonho Lee, David Small,
  Daniel Levine, Susi Lehtola, Hugh Burton, Evgeny Epifanovsky,
  Bang C. Huynh
 -----------------------------------------------------------------------
 Hartree-Fock
 A restricted SCF calculation will be
 performed using DIIS
 SCF converges when DIIS error is below 1.0e-06
 ---------------------------------------
  Cycle       Energy         DIIS error
 ---------------------------------------
    1    -632.1056515992      2.92e-02  
    2    -629.3389713455      1.94e-03  
    3    -629.4095408664      6.91e-04  
    4    -629.4171891866      3.47e-04  
    5    -629.4193407499      6.44e-05  
    6    -629.4194781970      2.65e-05  
    7    -629.4195129737      1.17e-05  
    8    -629.4195225595      5.07e-06  
    9    -629.4195240236      1.74e-06  
   10    -629.4195242036      5.64e-07  Convergence criterion met
 ---------------------------------------
 SCF time:   CPU 143.77s  wall 145.00s 

************** Final PCM Free Energy Summary **************
 G_electrostatic  =      -0.00517699 hartree =      -3.24860871 kcal/mol
 G_cavitation     =       0.00000000 hartree =       0.00000000 kcal/mol
 G_dispersion     =       0.00000000 hartree =       0.00000000 kcal/mol
 G_repulsion      =       0.00000000 hartree =       0.00000000 kcal/mol
 --------------------------------------------------
 Non-electrostatic Free Energy =       0.00000000 hartree =       0.00000000 kcal/mol
 Total                         =      -0.00517699 hartree =      -3.24860871 kcal/mol
 --------------------------------------------------
 SCF Energy (H0 + V/2)                       =    -629.41952420 
 Solute Internal Energy (H0)                 =    -629.41434722 
 Total Free Energy (H0 + V/2 + non-elec)     =    -629.41952420 hartree
                                             = -394966.71267005 kcal/mol
***********************************************************

 SCF   energy in the final basis set =     -629.4195242036
 Total energy in the final basis set =     -629.4195242036


 --------------------------------------------------------------
  Generalized many-body perturbation theory program
  by Joonho Lee, Fazle Rob, Xintian Feng, Evgeny Epifanovsky

 No regularization used 
 (reg. param. = 0.0000e+00)
  (P|Q)^-1/2 Time:  CPU 0.49 s  wall 0.49 s

 In RI-MP2 calculation: 
 # of frozen core orbitals: 11

 Components of the RIMP2 correlation energy:
        aaaa    correlation energy =        -0.1454644267 a.u.
        abab    correlation energy =        -0.8865478854 a.u.
        bbbb    correlation energy =        -0.1454644267 a.u.
        non-Brillouin singles      =        -0.0000000000 a.u.
        total same-spin energy     =        -0.2909288533 a.u.
        total opposite-spin energy =        -0.8865478854 a.u.

 Total  RIMP2   correlation energy =        -1.1774767387 a.u.
        RIMP2         total energy =      -630.5970009422 a.u.

 RI-MP2 Energy Time:  CPU 11.07 s  wall 11.12 s
 
 --------------------------------------------------------------
 
                    Orbital Energies (a.u.)
 --------------------------------------------------------------
 
 Alpha MOs
 -- Occupied --
-91.9802 -11.2765 -11.2566 -11.2470 -11.2279 -11.2267 -11.2168  -8.9800
 -6.6610  -6.6605  -6.6598  -1.1609  -1.0552  -0.9955  -0.9459  -0.8817
 -0.7472  -0.7185  -0.6481  -0.5911  -0.5750  -0.5658  -0.5536  -0.5472
 -0.5089  -0.4865  -0.4649  -0.4480  -0.3387  -0.2995
 -- Virtual --
  0.1041   0.1420   0.1497   0.1750   0.1884   0.1922   0.1996   0.2285
  0.2362   0.2429   0.2477   0.2691   0.2895   0.3219   0.3399   0.3492
  0.3776   0.3964   0.4010   0.4174   0.4381   0.4679   0.4719   0.4845
  0.4908   0.4978   0.5214   0.5295   0.5405   0.5586   0.5865   0.5982
  0.6028   0.6065   0.6119   0.6146   0.6305   0.6382   0.6448   0.6490
  0.6556   0.6680   0.6902   0.7103   0.7372   0.7446   0.7598   0.7831
  0.8003   0.8296   0.8425   0.8552   0.8727   0.8926   0.9171   0.9212
  0.9431   0.9610   0.9831   1.0073   1.0354   1.0483   1.0675   1.0746
  1.0841   1.0857   1.1048   1.1472   1.1650   1.1761   1.2009   1.2159
  1.2304   1.2416   1.2539   1.2599   1.2691   1.2882   1.3063   1.3279
  1.3530   1.3752   1.3926   1.4102   1.4253   1.4374   1.4577   1.4795
  1.5014   1.5165   1.5333   1.5371   1.5520   1.5573   1.5777   1.5832
  1.6153   1.6284   1.6522   1.6703   1.6848   1.6915   1.7099   1.7418
  1.7600   1.7824   1.8262   1.8298   1.8854   1.9112   1.9154   1.9653
  2.0023   2.0433   2.0903   2.1296   2.1804   2.1941   2.2186   2.2364
  2.2605   2.2881   2.3510   2.4189   2.4573   2.5006   2.5354   2.5515
  2.5661   2.6072   2.6314   2.6657   2.6866   2.6961   2.7051   2.7434
  2.7538   2.7601   2.7683   2.7922   2.8160   2.8339   2.8480   2.8747
  2.9128   2.9326   2.9567   2.9812   2.9941   3.0105   3.0471   3.0554
  3.0941   3.1141   3.1171   3.1316   3.1450   3.1613   3.1677   3.2015
  3.2214   3.2407   3.2596   3.2749   3.2876   3.2943   3.3134   3.3269
  3.3417   3.3604   3.3732   3.3904   3.3994   3.4230   3.4259   3.4348
  3.4563   3.4717   3.4927   3.4964   3.5156   3.5213   3.5361   3.5692
  3.5831   3.5974   3.6092   3.6211   3.6220   3.6312   3.6592   3.6808
  3.6932   3.7040   3.7179   3.7511   3.7595   3.7849   3.7888   3.8035
  3.8087   3.8286   3.8730   3.8877   3.9129   3.9163   3.9345   3.9553
  3.9684   3.9924   4.0082   4.0321   4.0421   4.0459   4.0856   4.1039
  4.1222   4.1522   4.1615   4.1777   4.1891   4.2226   4.2410   4.2512
  4.2847   4.2909   4.3061   4.3340   4.3413   4.3589   4.3929   4.4024
  4.4088   4.4233   4.4476   4.4550   4.4712   4.4965   4.5327   4.5517
  4.5906   4.6146   4.6489   4.6680   4.7124   4.7286   4.7619   4.7866
  4.8030   4.8264   4.8438   4.8922   4.9364   4.9763   5.0757   5.0999
  5.1060   5.1599   5.1945   5.1963   5.2551   5.2742   5.2892   5.3200
  5.3656   5.4047   5.4160   5.4410   5.4733   5.5005   5.5500   5.5642
  5.5942   5.6156   5.6236   5.6952   5.7362   5.8315   5.8348   5.8737
  5.8910   6.0299   6.0472   6.1275   6.2275   6.2532   6.3106   6.3558
  6.4436   6.4971   9.1561  11.4531  12.9379  13.9281  14.1916  14.4393
 --------------------------------------------------------------
 
          Ground-State Mulliken Net Atomic Charges

     Atom                 Charge (a.u.)
  ----------------------------------------
      1 C                     0.041692
      2 C                    -0.263586
      3 C                     0.036785
      4 H                     0.180168
      5 C                    -0.256523
      6 S                    -0.002981
      7 C                    -0.273471
      8 H                     0.101678
      9 H                     0.106911
     10 H                     0.106968
     11 C                    -0.369885
     12 H                     0.115454
     13 H                     0.156138
     14 H                     0.125858
     15 H                     0.194794
  ----------------------------------------
  Sum of atomic charges =     0.000000

 -----------------------------------------------------------------
                    Cartesian Multipole Moments
 -----------------------------------------------------------------
    Charge (ESU x 10^10)
                -0.0000
    Dipole Moment (Debye)
         X      -0.0584      Y      -0.1037      Z       0.9095
       Tot       0.9173
    Quadrupole Moments (Debye-Ang)
        XX     -53.5488     XY       2.3665     YY     -42.3310
        XZ      -0.1942     YZ       1.2675     ZZ     -48.7837
    Octopole Moments (Debye-Ang^2)
       XXX     -18.7771    XXY     -31.4309    XYY      -4.9196
       YYY     -78.4071    XXZ      -1.7093    XYZ       0.4282
       YYZ      -6.5905    XZZ      -5.1146    YZZ     -23.3637
       ZZZ       2.1689
    Hexadecapole Moments (Debye-Ang^3)
      XXXX     -96.7618   XXXY     -56.6809   XXYY    -156.0674
      XYYY     -41.1945   YYYY    -796.6548   XXXZ     -16.1934
      XXYZ     -31.4273   XYYZ     -10.6715   YYYZ    -102.5177
      XXZZ    -103.8103   XYZZ     -15.6825   YYZZ    -213.8446
      XZZZ     -17.3862   YZZZ    -103.3477   ZZZZ    -482.5237
 -----------------------------------------------------------------
 Total job time:  157.32s(wall), 155.19s(cpu) 
 Sun Jul 10 10:21:24 2022

        *************************************************************
        *                                                           *
        *  Thank you very much for using Q-Chem.  Have a nice day.  *
        *                                                           *
        *************************************************************


remove work dirs ./qchem2251462.0 -- ./qchem2251462.-1
rm -rf ./qchem2251462
You are running Q-Chem version: 5.4.0

#
# job setting
#
local host:  exp-6-19
current dir: /expanse/lustre/scratch/theleonzhang/temp_project/Hydrogenated_Impropers_Test
input file:  Methylthiophene_Phi_10_Theta_240_Methylthiophene_Hydrogenated_Improper_Alternate.qcin
output file: 
nprocs     : 0
nthreads   : 1
#
# qchem installation setting
#
QC:          /cm/shared/apps/spack/cpu/opt/spack/linux-centos8-zen2/gcc-10.2.0/qchem-5.4-akfmr7b3t57bfs6qan3padb2wnb2i7cl
QCAUX:       /cm/shared/apps/spack/cpu/opt/spack/linux-centos8-zen2/gcc-10.2.0/qchem-5.4-akfmr7b3t57bfs6qan3padb2wnb2i7cl/qcaux
QCPROG:      /cm/shared/apps/spack/cpu/opt/spack/linux-centos8-zen2/gcc-10.2.0/qchem-5.4-akfmr7b3t57bfs6qan3padb2wnb2i7cl/exe/qcprog.exe_s
QCPROG_S:    /cm/shared/apps/spack/cpu/opt/spack/linux-centos8-zen2/gcc-10.2.0/qchem-5.4-akfmr7b3t57bfs6qan3padb2wnb2i7cl/exe/qcprog.exe_s
PARALLEL:    -DSERIAL
QCMPI:       mpich
#
# qchem directory setting
#
qcrun:       qchem2464342
QCSCRATCH:   .
QCLOCALSCR:  
QCTMPDIR:    .
QCFILEPREF:  ./qchem2464342
QCSAVEDIR:   
workdirs:    ./qchem2464342
workdir0:    ./qchem2464342
partmpdirs =  
#
# parallel setting
#
QCRSH:           ssh
QCMPI:           mpich
QCMPIRUN:        /cm/shared/apps/spack/cpu/opt/spack/linux-centos8-zen2/gcc-10.2.0/qchem-5.4-akfmr7b3t57bfs6qan3padb2wnb2i7cl/bin/mpi/mpirun_qchem
QCMACHINEFILE:   ./qchem2464342/hostfile

#
# env setting
#
exported envs:   QC QCAUX QCSCRATCH QCRUNNAME QCFILEPREF QCPROG QCPROG_S GUIFILE

Running Job 1 of 1 Methylthiophene_Phi_10_Theta_240_Methylthiophene_Hydrogenated_Improper_Alternate.qcin
qchem Methylthiophene_Phi_10_Theta_240_Methylthiophene_Hydrogenated_Improper_Alternate.qcin_2464342.0 ./qchem2464342/ 0
/cm/shared/apps/spack/cpu/opt/spack/linux-centos8-zen2/gcc-10.2.0/qchem-5.4-akfmr7b3t57bfs6qan3padb2wnb2i7cl/exe/qcprog.exe_s Methylthiophene_Phi_10_Theta_240_Methylthiophene_Hydrogenated_Improper_Alternate.qcin_2464342.0 ./qchem2464342/
                  Welcome to Q-Chem
     A Quantum Leap Into The Future Of Chemistry


 Q-Chem 5.4, Q-Chem, Inc., Pleasanton, CA (2021)

 License issued to: University of California, San Diego (site)

 E. Epifanovsky,  A. T. B. Gilbert,  Xintian Feng,  Joonho Lee,  Yuezhi Mao,  
 N. Mardirossian,  P. Pokhilko,  A. White,  M. Wormit,  M. P. Coons,  
 A. L. Dempwolff,  Zhengting Gan,  D. Hait,  P. R. Horn,  L. D. Jacobson,  
 I. Kaliman,  J. Kussmann,  A. W. Lange,  Ka Un Lao,  D. S. Levine,  Jie Liu,  
 S. C. McKenzie,  A. F. Morrison,  K. Nanda,  F. Plasser,  D. R. Rehn,  
 M. L. Vidal,  Zhi-Qiang You,  Ying Zhu,  B. Alam,  B. Albrecht,  
 A. Aldossary,  E. Alguire,  J. H. Andersen,  D. Barton,  K. Begam,  A. Behn,  
 Y. A. Bernard,  E. J. Berquist,  H. Burton,  A. Carreras,  K. Carter-Fenk,  
 R. Chakraborty,  A. D. Chien,  K. D. Closser,  V. Cofer-Shabica,  
 S. Dasgupta,  Jia Deng,  M. de Wergifosse,  M. Diedenhofen,  Hainam Do,  
 S. Ehlert,  Po-Tung Fang,  S. Fatehi,  Qingguo Feng,  J. Gayvert,  
 Qinghui Ge,  G. Gidofalvi,  M. Goldey,  J. Gomes,  C. Gonzalez-Espinoza,  
 S. Gulania,  A. Gunina,  M. W. D. Hanson-Heine,  P. H. P. Harbach,  
 A. W. Hauser,  M. F. Herbst,  M. Hernandez Vera,  M. Hodecker,  
 Z. C. Holden,  S. Houck,  Xunkun Huang,  Kerwin Hui,  B. C. Huynh,  
 M. Ivanov,  Hyunjun Ji,  Hanjie Jiang,  B. Kaduk,  S. Kaehler,  
 K. Khistyaev,  Jaehoon Kim,  P. Klunzinger,  Z. Koczor-Benda,  
 Joong Hoon Koh,  D. Kosenkov,  L. Koulias,  T. Kowalczyk,  C. M. Krauter,  
 K. Kue,  A. Kunitsa,  T. Kus,  A. Landau,  K. V. Lawler,  D. Lefrancois,  
 S. Lehtola,  Rain Li,  Yi-Pei Li,  Jiashu Liang,  M. Liebenthal,  
 Hung-Hsuan Lin,  You-Sheng Lin,  Fenglai Liu,  Kuan-Yu Liu,  
 M. Loipersberger,  A. Luenser,  A. Manjanath,  P. Manohar,  E. Mansoor,  
 S. F. Manzer,  Shan-Ping Mao,  A. V. Marenich,  T. Markovich,  S. Mason,  
 S. A. Maurer,  P. F. McLaughlin,  M. F. S. J. Menger,  J.-M. Mewes,  
 S. A. Mewes,  P. Morgante,  J. W. Mullinax,  T. S. Nguyen-Beck,  
 K. J. Oosterbaan,  G. Paran,  Alexander C. Paul,  Suranjan K. Paul,  
 F. Pavosevic,  Zheng Pei,  S. Prager,  E. I. Proynov,  E. Ramos,  B. Rana,  
 A. E. Rask,  A. Rettig,  R. M. Richard,  F. Rob,  E. Rossomme,  T. Scheele,  
 M. Scheurer,  M. Schneider,  N. Sergueev,  S. M. Sharada,  W. Skomorowski,  
 D. W. Small,  C. J. Stein,  Yu-Chuan Su,  E. J. Sundstrom,  Zhen Tao,  
 J. Thirman,  T. Tsuchimochi,  N. M. Tubman,  S. P. Veccham,  O. Vydrov,  
 J. Wenzel,  J. Witte,  A. Yamada,  Kun Yao,  S. Yeganeh,  S. R. Yost,  
 A. Zech,  Igor Ying Zhang,  Xing Zhang,  Yu Zhang,  D. Zuev,  
 A. Aspuru-Guzik,  A. T. Bell,  N. A. Besley,  K. B. Bravaya,  B. R. Brooks,  
 D. Casanova,  Jeng-Da Chai,  S. Coriani,  C. J. Cramer,  
 A. E. DePrince, III,  R. A. DiStasio Jr.,  A. Dreuw,  B. D. Dunietz,  
 T. R. Furlani,  W. A. Goddard III,  S. Grimme,  S. Hammes-Schiffer,  
 T. Head-Gordon,  W. J. Hehre,  Chao-Ping Hsu,  T.-C. Jagau,  Yousung Jung,  
 A. Klamt,  Jing Kong,  D. S. Lambrecht,  WanZhen Liang,  N. J. Mayhall,  
 C. W. McCurdy,  J. B. Neaton,  C. Ochsenfeld,  J. A. Parkhill,  R. Peverati,  
 V. A. Rassolov,  Yihan Shao,  L. V. Slipchenko,  T. Stauch,  R. P. Steele,  
 J. E. Subotnik,  A. J. W. Thom,  A. Tkatchenko,  D. G. Truhlar,  
 T. Van Voorhis,  T. A. Wesolowski,  K. B. Whaley,  H. L. Woodcock III,  
 P. M. Zimmerman,  S. Faraji,  P. M. W. Gill,  M. Head-Gordon,  
 J. M. Herbert,  A. I. Krylov

 Contributors to earlier versions of Q-Chem not listed above: 
 R. D. Adamson,  B. Austin,  R. Baer,  J. Baker,  G. J. O. Beran,  
 K. Brandhorst,  S. T. Brown,  E. F. C. Byrd,  A. K. Chakraborty,  
 G. K. L. Chan,  Chun-Min Chang,  Yunqing Chen,  C.-L. Cheng,  
 Siu Hung Chien,  D. M. Chipman,  D. L. Crittenden,  H. Dachsel,  
 R. J. Doerksen,  A. D. Dutoi,  R. G. Edgar,  J. Fosso-Tande,  
 L. Fusti-Molnar,  D. Ghosh,  A. Ghysels,  A. Golubeva-Zadorozhnaya,  
 J. Gonthier,  M. S. Gordon,  S. R. Gwaltney,  G. Hawkins,  J. E. Herr,  
 A. Heyden,  S. Hirata,  E. G. Hohenstein,  G. Kedziora,  F. J. Keil,  
 C. Kelley,  Jihan Kim,  R. A. King,  R. Z. Khaliullin,  P. P. Korambath,  
 W. Kurlancheek,  A. Laurent,  A. M. Lee,  M. S. Lee,  S. V. Levchenko,  
 Ching Yeh Lin,  D. Liotard,  E. Livshits,  R. C. Lochan,  I. Lotan,  
 L. A. Martinez-Martinez,  P. E. Maslen,  N. Nair,  D. P. O'Neill,  
 D. Neuhauser,  E. Neuscamman,  C. M. Oana,  R. Olivares-Amaya,  R. Olson,  
 T. M. Perrine,  B. Peters,  P. A. Pieniazek,  A. Prociuk,  Y. M. Rhee,  
 J. Ritchie,  M. A. Rohrdanz,  E. Rosta,  N. J. Russ,  H. F. Schaefer III,  
 M. W. Schmidt,  N. E. Schultz,  S. Sharma,  N. Shenvi,  C. D. Sherrill,  
 A. C. Simmonett,  A. Sodt,  T. Stein,  D. Stuck,  K. S. Thanthiriwatte,  
 V. Vanovschi,  L. Vogt,  Tao Wang,  A. Warshel,  M. A. Watson,  
 C. F. Williams,  Q. Wu,  X. Xu,  Jun Yang,  W. Zhang,  Yan Zhao

 Please cite Q-Chem as follows:
 Y. Shao et al., Mol. Phys. 113, 184-215 (2015)
 DOI: 10.1080/00268976.2014.952696

 Q-Chem 5.4.0 for Intel X86 EM64T Linux

 Parts of Q-Chem use Armadillo 9.800.1 (Horizon Scraper).
 http://arma.sourceforge.net/

 Q-Chem begins on Sun Jul 10 10:52:11 2022  

 Host: 
0

     Scratch files written to ./qchem2464342//
 May1621 |scratch|qcdevops|jenkins|workspace|build_RNUM    
 Processing $rem in /cm/shared/apps/spack/cpu/opt/spack/linux-centos8-zen2/gcc-10.2.0/qchem-5.4-akfmr7b3t57bfs6qan3padb2wnb2i7cl/config/preferences:
 Processing $rem in /home/theleonzhang/.qchemrc:
 Symmetry turned off for PCM/SM12/SMD calculation
 Core orbitals will be frozen

 Checking the input file for inconsistencies... 	...done.

--------------------------------------------------------------
User input:
--------------------------------------------------------------
$molecule
0 1
C	-0.115884	-0.566007	0.019522
C	0.034116	0.284493	1.118922
C	0.274416	1.647393	0.796222
H	-0.029984	-0.078707	2.155622
C	0.312816	1.864693	-0.592978
S	0.047816	0.362093	-1.467278
C	0.463316	2.718593	1.834122
H	0.389416	2.299393	2.856222
H	-0.301884	3.517893	1.745722
H	1.455816	3.207893	1.745722
C	-0.115884	-2.006707	0.019522
H	-0.655784	-2.006907	-0.915878
H	-0.825384	-2.710507	0.429022
H	0.704316	-2.525607	-0.454078
H	0.477616	2.799393	-1.142078
$end

$rem
JOBTYPE		SP
EXCHANGE	HF
CORRELATION	pRIMP2
BASIS		cc-pvtz
METHOD		rimp2
AUX_BASIS	rimp2-cc-pvtz
SOLVENT_METHOD	PCM
PURECART	11111
SYMMETRY	false
MEM_TOTAL	110000
SCF_CONVERGENCE = 6
THRESH=10
$end



$solvent
dielectric 4.90
$end
--------------------------------------------------------------
 ----------------------------------------------------------------
             Standard Nuclear Orientation (Angstroms)
    I     Atom           X                Y                Z
 ----------------------------------------------------------------
    1      C      -0.1158840000    -0.5660070000     0.0195220000
    2      C       0.0341160000     0.2844930000     1.1189220000
    3      C       0.2744160000     1.6473930000     0.7962220000
    4      H      -0.0299840000    -0.0787070000     2.1556220000
    5      C       0.3128160000     1.8646930000    -0.5929780000
    6      S       0.0478160000     0.3620930000    -1.4672780000
    7      C       0.4633160000     2.7185930000     1.8341220000
    8      H       0.3894160000     2.2993930000     2.8562220000
    9      H      -0.3018840000     3.5178930000     1.7457220000
   10      H       1.4558160000     3.2078930000     1.7457220000
   11      C      -0.1158840000    -2.0067070000     0.0195220000
   12      H      -0.6557840000    -2.0069070000    -0.9158780000
   13      H      -0.8253840000    -2.7105070000     0.4290220000
   14      H       0.7043160000    -2.5256070000    -0.4540780000
   15      H       0.4776160000     2.7993930000    -1.1420780000
 ----------------------------------------------------------------
 Nuclear Repulsion Energy =         344.77139217 hartrees
 There are       30 alpha and       30 beta electrons

 Q-Chem warning in module forms1/BasisType.C, line 2236:

 You are not using the predefined 5D/6D in this basis set.

 Requested basis set is cc-pVTZ
 There are 120 shells and 326 basis functions

 Total QAlloc Memory Limit 110000 MB
 Mega-Array Size       188 MB
 MEM_STATIC part       192 MB
 Discretize the solute cavity surface with Lebedev spheres
	Using 110 Lebedev grid points for each H atom
	Using 194 Lebedev grid points for other atoms
	Atomic van der Waals radii will be scaled by 1.20
 Remove points where switching function is < 1.0e-08
 Keep 1064 surface tesserae and discard 1174 interior tesserae
 Molecular Surface Area = 158.109 Angst**2

                       Distance Matrix (Angstroms)
             C (  1)   C (  2)   C (  3)   H (  4)   C (  5)   S (  6)
   C (  2)  1.398045
   C (  3)  2.377969  1.421047
   H (  4)  2.192661  1.100350  2.218118
   C (  5)  2.543077  2.346339  1.406617  3.383654
   S (  6)  1.760324  2.587400  2.612810  3.650447  1.758531
   C (  7)  3.796952  2.573046  1.503459  2.858600  2.577326  4.077373
   H (  8)  4.063584  2.684077  2.163777  2.514378  3.477328  4.749997
   H (  9)  4.437635  3.310687  2.175418  3.630080  2.929239  4.517160
   H ( 10)  4.437604  3.310646  2.175412  3.630063  2.929190  4.517124
   C ( 11)  1.440700  2.545737  3.756068  2.878799  3.942928  2.801533
   H ( 12)  1.800738  3.141160  4.141312  3.680176  4.003965  2.532046
   H ( 13)  2.295640  3.191352  4.509511  3.246564  4.824152  3.714741
   H ( 14)  2.176478  3.289401  4.377441  3.651993  4.409909  3.129917
   H ( 15)  3.609359  3.410797  2.263935  4.406353  1.096510  2.496180
             C (  7)   H (  8)   H (  9)   H ( 10)   C ( 11)   H ( 12)
   H (  8)  1.107194
   H (  9)  1.110057  1.787694
   H ( 10)  1.110083  1.787678  1.784828
   C ( 11)  5.094772  5.181186  5.790990  5.713323
   H ( 12)  5.580792  5.819399  6.142701  6.223914  1.080030
   H ( 13)  5.754145  5.697906  6.387544  6.478042  1.080007  1.527276
   H ( 14)  5.726742  5.859853  6.509643  6.186832  1.079945  1.527148
   H ( 15)  2.977331  4.030407  3.076240  3.076221  4.979975  4.943307
             H ( 13)   H ( 14)
   H ( 14)  1.775961
   H ( 15)  5.875812  5.374045
 
 Requested basis set is rimp2-cc-pVTZ
 There are 250 shells and 848 basis functions
 A cutoff of  1.0D-10 yielded   6163 shell pairs
 There are     45129 function pairs (     58033 Cartesian)
 Smallest overlap matrix eigenvalue = 9.90E-05

 Scale SEOQF with 1.000000e-01/1.000000e-01/1.000000e-01

 Standard Electronic Orientation quadrupole field applied
 Nucleus-field energy     =     0.0000000023 hartrees
 Guess from superposition of atomic densities
 Warning:  Energy on first SCF cycle will be non-variational
 SAD guess density has 60.000000 electrons

 -----------------------------------------------------------------------
  General SCF calculation program by
  Eric Jon Sundstrom, Paul Horn, Yuezhi Mao, Dmitri Zuev, Alec White,
  David Stuck, Shaama M.S., Shane Yost, Joonho Lee, David Small,
  Daniel Levine, Susi Lehtola, Hugh Burton, Evgeny Epifanovsky,
  Bang C. Huynh
 -----------------------------------------------------------------------
 Hartree-Fock
 A restricted SCF calculation will be
 performed using DIIS
 SCF converges when DIIS error is below 1.0e-06
 ---------------------------------------
  Cycle       Energy         DIIS error
 ---------------------------------------
    1    -632.1056515992      2.92e-02  
    2    -629.3389713455      1.94e-03  
    3    -629.4095408664      6.91e-04  
    4    -629.4171891866      3.47e-04  
    5    -629.4193407499      6.44e-05  
    6    -629.4194781970      2.65e-05  
    7    -629.4195129737      1.17e-05  
    8    -629.4195225595      5.07e-06  
    9    -629.4195240236      1.74e-06  
   10    -629.4195242036      5.64e-07  Convergence criterion met
 ---------------------------------------
 SCF time:   CPU 142.99s  wall 144.00s 

************** Final PCM Free Energy Summary **************
 G_electrostatic  =      -0.00517699 hartree =      -3.24860871 kcal/mol
 G_cavitation     =       0.00000000 hartree =       0.00000000 kcal/mol
 G_dispersion     =       0.00000000 hartree =       0.00000000 kcal/mol
 G_repulsion      =       0.00000000 hartree =       0.00000000 kcal/mol
 --------------------------------------------------
 Non-electrostatic Free Energy =       0.00000000 hartree =       0.00000000 kcal/mol
 Total                         =      -0.00517699 hartree =      -3.24860871 kcal/mol
 --------------------------------------------------
 SCF Energy (H0 + V/2)                       =    -629.41952420 
 Solute Internal Energy (H0)                 =    -629.41434722 
 Total Free Energy (H0 + V/2 + non-elec)     =    -629.41952420 hartree
                                             = -394966.71267005 kcal/mol
***********************************************************

 SCF   energy in the final basis set =     -629.4195242036
 Total energy in the final basis set =     -629.4195242036


 --------------------------------------------------------------
  Generalized many-body perturbation theory program
  by Joonho Lee, Fazle Rob, Xintian Feng, Evgeny Epifanovsky

 No regularization used 
 (reg. param. = 0.0000e+00)
  (P|Q)^-1/2 Time:  CPU 0.48 s  wall 0.48 s

 In RI-MP2 calculation: 
 # of frozen core orbitals: 11

 Components of the RIMP2 correlation energy:
        aaaa    correlation energy =        -0.1454644267 a.u.
        abab    correlation energy =        -0.8865478854 a.u.
        bbbb    correlation energy =        -0.1454644267 a.u.
        non-Brillouin singles      =        -0.0000000000 a.u.
        total same-spin energy     =        -0.2909288533 a.u.
        total opposite-spin energy =        -0.8865478854 a.u.

 Total  RIMP2   correlation energy =        -1.1774767387 a.u.
        RIMP2         total energy =      -630.5970009422 a.u.

 RI-MP2 Energy Time:  CPU 10.99 s  wall 11.01 s
 
 --------------------------------------------------------------
 
                    Orbital Energies (a.u.)
 --------------------------------------------------------------
 
 Alpha MOs
 -- Occupied --
-91.9802 -11.2765 -11.2566 -11.2470 -11.2279 -11.2267 -11.2168  -8.9800
 -6.6610  -6.6605  -6.6598  -1.1609  -1.0552  -0.9955  -0.9459  -0.8817
 -0.7472  -0.7185  -0.6481  -0.5911  -0.5750  -0.5658  -0.5536  -0.5472
 -0.5089  -0.4865  -0.4649  -0.4480  -0.3387  -0.2995
 -- Virtual --
  0.1041   0.1420   0.1497   0.1750   0.1884   0.1922   0.1996   0.2285
  0.2362   0.2429   0.2477   0.2691   0.2895   0.3219   0.3399   0.3492
  0.3776   0.3964   0.4010   0.4174   0.4381   0.4679   0.4719   0.4845
  0.4908   0.4978   0.5214   0.5295   0.5405   0.5586   0.5865   0.5982
  0.6028   0.6065   0.6119   0.6146   0.6305   0.6382   0.6448   0.6490
  0.6556   0.6680   0.6902   0.7103   0.7372   0.7446   0.7598   0.7831
  0.8003   0.8296   0.8425   0.8552   0.8727   0.8926   0.9171   0.9212
  0.9431   0.9610   0.9831   1.0073   1.0354   1.0483   1.0675   1.0746
  1.0841   1.0857   1.1048   1.1472   1.1650   1.1761   1.2009   1.2159
  1.2304   1.2416   1.2539   1.2599   1.2691   1.2882   1.3063   1.3279
  1.3530   1.3752   1.3926   1.4102   1.4253   1.4374   1.4577   1.4795
  1.5014   1.5165   1.5333   1.5371   1.5520   1.5573   1.5777   1.5832
  1.6153   1.6284   1.6522   1.6703   1.6848   1.6915   1.7099   1.7418
  1.7600   1.7824   1.8262   1.8298   1.8854   1.9112   1.9154   1.9653
  2.0023   2.0433   2.0903   2.1296   2.1804   2.1941   2.2186   2.2364
  2.2605   2.2881   2.3510   2.4189   2.4573   2.5006   2.5354   2.5515
  2.5661   2.6072   2.6314   2.6657   2.6866   2.6961   2.7051   2.7434
  2.7538   2.7601   2.7683   2.7922   2.8160   2.8339   2.8480   2.8747
  2.9128   2.9326   2.9567   2.9812   2.9941   3.0105   3.0471   3.0554
  3.0941   3.1141   3.1171   3.1316   3.1450   3.1613   3.1677   3.2015
  3.2214   3.2407   3.2596   3.2749   3.2876   3.2943   3.3134   3.3269
  3.3417   3.3604   3.3732   3.3904   3.3994   3.4230   3.4259   3.4348
  3.4563   3.4717   3.4927   3.4964   3.5156   3.5213   3.5361   3.5692
  3.5831   3.5974   3.6092   3.6211   3.6220   3.6312   3.6592   3.6808
  3.6932   3.7040   3.7179   3.7511   3.7595   3.7849   3.7888   3.8035
  3.8087   3.8286   3.8730   3.8877   3.9129   3.9163   3.9345   3.9553
  3.9684   3.9924   4.0082   4.0321   4.0421   4.0459   4.0856   4.1039
  4.1222   4.1522   4.1615   4.1777   4.1891   4.2226   4.2410   4.2512
  4.2847   4.2909   4.3061   4.3340   4.3413   4.3589   4.3929   4.4024
  4.4088   4.4233   4.4476   4.4550   4.4712   4.4965   4.5327   4.5517
  4.5906   4.6146   4.6489   4.6680   4.7124   4.7286   4.7619   4.7866
  4.8030   4.8264   4.8438   4.8922   4.9364   4.9763   5.0757   5.0999
  5.1060   5.1599   5.1945   5.1963   5.2551   5.2742   5.2892   5.3200
  5.3656   5.4047   5.4160   5.4410   5.4733   5.5005   5.5500   5.5642
  5.5942   5.6156   5.6236   5.6952   5.7362   5.8315   5.8348   5.8737
  5.8910   6.0299   6.0472   6.1275   6.2275   6.2532   6.3106   6.3558
  6.4436   6.4971   9.1561  11.4531  12.9379  13.9281  14.1916  14.4393
 --------------------------------------------------------------
 
          Ground-State Mulliken Net Atomic Charges

     Atom                 Charge (a.u.)
  ----------------------------------------
      1 C                     0.041692
      2 C                    -0.263586
      3 C                     0.036785
      4 H                     0.180168
      5 C                    -0.256523
      6 S                    -0.002981
      7 C                    -0.273471
      8 H                     0.101678
      9 H                     0.106911
     10 H                     0.106968
     11 C                    -0.369885
     12 H                     0.115454
     13 H                     0.156138
     14 H                     0.125858
     15 H                     0.194794
  ----------------------------------------
  Sum of atomic charges =     0.000000

 -----------------------------------------------------------------
                    Cartesian Multipole Moments
 -----------------------------------------------------------------
    Charge (ESU x 10^10)
                -0.0000
    Dipole Moment (Debye)
         X      -0.0584      Y      -0.1037      Z       0.9095
       Tot       0.9173
    Quadrupole Moments (Debye-Ang)
        XX     -53.5488     XY       2.3665     YY     -42.3310
        XZ      -0.1942     YZ       1.2675     ZZ     -48.7837
    Octopole Moments (Debye-Ang^2)
       XXX     -18.7771    XXY     -31.4309    XYY      -4.9196
       YYY     -78.4071    XXZ      -1.7093    XYZ       0.4282
       YYZ      -6.5905    XZZ      -5.1146    YZZ     -23.3637
       ZZZ       2.1689
    Hexadecapole Moments (Debye-Ang^3)
      XXXX     -96.7618   XXXY     -56.6809   XXYY    -156.0674
      XYYY     -41.1945   YYYY    -796.6548   XXXZ     -16.1934
      XXYZ     -31.4273   XYYZ     -10.6715   YYYZ    -102.5177
      XXZZ    -103.8103   XYZZ     -15.6825   YYZZ    -213.8446
      XZZZ     -17.3862   YZZZ    -103.3477   ZZZZ    -482.5237
 -----------------------------------------------------------------
 Total job time:  155.40s(wall), 154.33s(cpu) 
 Sun Jul 10 10:54:47 2022

        *************************************************************
        *                                                           *
        *  Thank you very much for using Q-Chem.  Have a nice day.  *
        *                                                           *
        *************************************************************


remove work dirs ./qchem2464342.0 -- ./qchem2464342.-1
rm -rf ./qchem2464342
