You are running Q-Chem version: 5.4.0

#
# job setting
#
local host:  exp-2-28
current dir: /expanse/lustre/scratch/theleonzhang/temp_project/Hydrogenated_Impropers_Test
input file:  Methylthiophene_Phi_50_Theta_330_Methylthiophene_Hydrogenated_Improper.qcin
output file: 
nprocs     : 0
nthreads   : 1
#
# qchem installation setting
#
QC:          /cm/shared/apps/spack/cpu/opt/spack/linux-centos8-zen2/gcc-10.2.0/qchem-5.4-akfmr7b3t57bfs6qan3padb2wnb2i7cl
QCAUX:       /cm/shared/apps/spack/cpu/opt/spack/linux-centos8-zen2/gcc-10.2.0/qchem-5.4-akfmr7b3t57bfs6qan3padb2wnb2i7cl/qcaux
QCPROG:      /cm/shared/apps/spack/cpu/opt/spack/linux-centos8-zen2/gcc-10.2.0/qchem-5.4-akfmr7b3t57bfs6qan3padb2wnb2i7cl/exe/qcprog.exe_s
QCPROG_S:    /cm/shared/apps/spack/cpu/opt/spack/linux-centos8-zen2/gcc-10.2.0/qchem-5.4-akfmr7b3t57bfs6qan3padb2wnb2i7cl/exe/qcprog.exe_s
PARALLEL:    -DSERIAL
QCMPI:       mpich
#
# qchem directory setting
#
qcrun:       qchem1920320
QCSCRATCH:   .
QCLOCALSCR:  
QCTMPDIR:    .
QCFILEPREF:  ./qchem1920320
QCSAVEDIR:   
workdirs:    ./qchem1920320
workdir0:    ./qchem1920320
partmpdirs =  
#
# parallel setting
#
QCRSH:           ssh
QCMPI:           mpich
QCMPIRUN:        /cm/shared/apps/spack/cpu/opt/spack/linux-centos8-zen2/gcc-10.2.0/qchem-5.4-akfmr7b3t57bfs6qan3padb2wnb2i7cl/bin/mpi/mpirun_qchem
QCMACHINEFILE:   ./qchem1920320/hostfile

#
# env setting
#
exported envs:   QC QCAUX QCSCRATCH QCRUNNAME QCFILEPREF QCPROG QCPROG_S GUIFILE

Running Job 1 of 1 Methylthiophene_Phi_50_Theta_330_Methylthiophene_Hydrogenated_Improper.qcin
qchem Methylthiophene_Phi_50_Theta_330_Methylthiophene_Hydrogenated_Improper.qcin_1920320.0 ./qchem1920320/ 0
/cm/shared/apps/spack/cpu/opt/spack/linux-centos8-zen2/gcc-10.2.0/qchem-5.4-akfmr7b3t57bfs6qan3padb2wnb2i7cl/exe/qcprog.exe_s Methylthiophene_Phi_50_Theta_330_Methylthiophene_Hydrogenated_Improper.qcin_1920320.0 ./qchem1920320/
                  Welcome to Q-Chem
     A Quantum Leap Into The Future Of Chemistry


 Q-Chem 5.4, Q-Chem, Inc., Pleasanton, CA (2021)

 License issued to: University of California, San Diego (site)

 E. Epifanovsky,  A. T. B. Gilbert,  Xintian Feng,  Joonho Lee,  Yuezhi Mao,  
 N. Mardirossian,  P. Pokhilko,  A. White,  M. Wormit,  M. P. Coons,  
 A. L. Dempwolff,  Zhengting Gan,  D. Hait,  P. R. Horn,  L. D. Jacobson,  
 I. Kaliman,  J. Kussmann,  A. W. Lange,  Ka Un Lao,  D. S. Levine,  Jie Liu,  
 S. C. McKenzie,  A. F. Morrison,  K. Nanda,  F. Plasser,  D. R. Rehn,  
 M. L. Vidal,  Zhi-Qiang You,  Ying Zhu,  B. Alam,  B. Albrecht,  
 A. Aldossary,  E. Alguire,  J. H. Andersen,  D. Barton,  K. Begam,  A. Behn,  
 Y. A. Bernard,  E. J. Berquist,  H. Burton,  A. Carreras,  K. Carter-Fenk,  
 R. Chakraborty,  A. D. Chien,  K. D. Closser,  V. Cofer-Shabica,  
 S. Dasgupta,  Jia Deng,  M. de Wergifosse,  M. Diedenhofen,  Hainam Do,  
 S. Ehlert,  Po-Tung Fang,  S. Fatehi,  Qingguo Feng,  J. Gayvert,  
 Qinghui Ge,  G. Gidofalvi,  M. Goldey,  J. Gomes,  C. Gonzalez-Espinoza,  
 S. Gulania,  A. Gunina,  M. W. D. Hanson-Heine,  P. H. P. Harbach,  
 A. W. Hauser,  M. F. Herbst,  M. Hernandez Vera,  M. Hodecker,  
 Z. C. Holden,  S. Houck,  Xunkun Huang,  Kerwin Hui,  B. C. Huynh,  
 M. Ivanov,  Hyunjun Ji,  Hanjie Jiang,  B. Kaduk,  S. Kaehler,  
 K. Khistyaev,  Jaehoon Kim,  P. Klunzinger,  Z. Koczor-Benda,  
 Joong Hoon Koh,  D. Kosenkov,  L. Koulias,  T. Kowalczyk,  C. M. Krauter,  
 K. Kue,  A. Kunitsa,  T. Kus,  A. Landau,  K. V. Lawler,  D. Lefrancois,  
 S. Lehtola,  Rain Li,  Yi-Pei Li,  Jiashu Liang,  M. Liebenthal,  
 Hung-Hsuan Lin,  You-Sheng Lin,  Fenglai Liu,  Kuan-Yu Liu,  
 M. Loipersberger,  A. Luenser,  A. Manjanath,  P. Manohar,  E. Mansoor,  
 S. F. Manzer,  Shan-Ping Mao,  A. V. Marenich,  T. Markovich,  S. Mason,  
 S. A. Maurer,  P. F. McLaughlin,  M. F. S. J. Menger,  J.-M. Mewes,  
 S. A. Mewes,  P. Morgante,  J. W. Mullinax,  T. S. Nguyen-Beck,  
 K. J. Oosterbaan,  G. Paran,  Alexander C. Paul,  Suranjan K. Paul,  
 F. Pavosevic,  Zheng Pei,  S. Prager,  E. I. Proynov,  E. Ramos,  B. Rana,  
 A. E. Rask,  A. Rettig,  R. M. Richard,  F. Rob,  E. Rossomme,  T. Scheele,  
 M. Scheurer,  M. Schneider,  N. Sergueev,  S. M. Sharada,  W. Skomorowski,  
 D. W. Small,  C. J. Stein,  Yu-Chuan Su,  E. J. Sundstrom,  Zhen Tao,  
 J. Thirman,  T. Tsuchimochi,  N. M. Tubman,  S. P. Veccham,  O. Vydrov,  
 J. Wenzel,  J. Witte,  A. Yamada,  Kun Yao,  S. Yeganeh,  S. R. Yost,  
 A. Zech,  Igor Ying Zhang,  Xing Zhang,  Yu Zhang,  D. Zuev,  
 A. Aspuru-Guzik,  A. T. Bell,  N. A. Besley,  K. B. Bravaya,  B. R. Brooks,  
 D. Casanova,  Jeng-Da Chai,  S. Coriani,  C. J. Cramer,  
 A. E. DePrince, III,  R. A. DiStasio Jr.,  A. Dreuw,  B. D. Dunietz,  
 T. R. Furlani,  W. A. Goddard III,  S. Grimme,  S. Hammes-Schiffer,  
 T. Head-Gordon,  W. J. Hehre,  Chao-Ping Hsu,  T.-C. Jagau,  Yousung Jung,  
 A. Klamt,  Jing Kong,  D. S. Lambrecht,  WanZhen Liang,  N. J. Mayhall,  
 C. W. McCurdy,  J. B. Neaton,  C. Ochsenfeld,  J. A. Parkhill,  R. Peverati,  
 V. A. Rassolov,  Yihan Shao,  L. V. Slipchenko,  T. Stauch,  R. P. Steele,  
 J. E. Subotnik,  A. J. W. Thom,  A. Tkatchenko,  D. G. Truhlar,  
 T. Van Voorhis,  T. A. Wesolowski,  K. B. Whaley,  H. L. Woodcock III,  
 P. M. Zimmerman,  S. Faraji,  P. M. W. Gill,  M. Head-Gordon,  
 J. M. Herbert,  A. I. Krylov

 Contributors to earlier versions of Q-Chem not listed above: 
 R. D. Adamson,  B. Austin,  R. Baer,  J. Baker,  G. J. O. Beran,  
 K. Brandhorst,  S. T. Brown,  E. F. C. Byrd,  A. K. Chakraborty,  
 G. K. L. Chan,  Chun-Min Chang,  Yunqing Chen,  C.-L. Cheng,  
 Siu Hung Chien,  D. M. Chipman,  D. L. Crittenden,  H. Dachsel,  
 R. J. Doerksen,  A. D. Dutoi,  R. G. Edgar,  J. Fosso-Tande,  
 L. Fusti-Molnar,  D. Ghosh,  A. Ghysels,  A. Golubeva-Zadorozhnaya,  
 J. Gonthier,  M. S. Gordon,  S. R. Gwaltney,  G. Hawkins,  J. E. Herr,  
 A. Heyden,  S. Hirata,  E. G. Hohenstein,  G. Kedziora,  F. J. Keil,  
 C. Kelley,  Jihan Kim,  R. A. King,  R. Z. Khaliullin,  P. P. Korambath,  
 W. Kurlancheek,  A. Laurent,  A. M. Lee,  M. S. Lee,  S. V. Levchenko,  
 Ching Yeh Lin,  D. Liotard,  E. Livshits,  R. C. Lochan,  I. Lotan,  
 L. A. Martinez-Martinez,  P. E. Maslen,  N. Nair,  D. P. O'Neill,  
 D. Neuhauser,  E. Neuscamman,  C. M. Oana,  R. Olivares-Amaya,  R. Olson,  
 T. M. Perrine,  B. Peters,  P. A. Pieniazek,  A. Prociuk,  Y. M. Rhee,  
 J. Ritchie,  M. A. Rohrdanz,  E. Rosta,  N. J. Russ,  H. F. Schaefer III,  
 M. W. Schmidt,  N. E. Schultz,  S. Sharma,  N. Shenvi,  C. D. Sherrill,  
 A. C. Simmonett,  A. Sodt,  T. Stein,  D. Stuck,  K. S. Thanthiriwatte,  
 V. Vanovschi,  L. Vogt,  Tao Wang,  A. Warshel,  M. A. Watson,  
 C. F. Williams,  Q. Wu,  X. Xu,  Jun Yang,  W. Zhang,  Yan Zhao

 Please cite Q-Chem as follows:
 Y. Shao et al., Mol. Phys. 113, 184-215 (2015)
 DOI: 10.1080/00268976.2014.952696

 Q-Chem 5.4.0 for Intel X86 EM64T Linux

 Parts of Q-Chem use Armadillo 9.800.1 (Horizon Scraper).
 http://arma.sourceforge.net/

 Q-Chem begins on Sun Jul 10 10:03:02 2022  

 Host: 
0

     Scratch files written to ./qchem1920320//
 May1621 |scratch|qcdevops|jenkins|workspace|build_RNUM    
 Processing $rem in /cm/shared/apps/spack/cpu/opt/spack/linux-centos8-zen2/gcc-10.2.0/qchem-5.4-akfmr7b3t57bfs6qan3padb2wnb2i7cl/config/preferences:
 Processing $rem in /home/theleonzhang/.qchemrc:
 Symmetry turned off for PCM/SM12/SMD calculation
 Core orbitals will be frozen

 Checking the input file for inconsistencies... 	...done.

--------------------------------------------------------------
User input:
--------------------------------------------------------------
$molecule
0 1
C	-0.515729	-0.333974	0.012109
C	0.145871	0.221126	1.111509
C	1.205971	1.110626	0.788809
H	-0.136629	-0.015974	2.148209
C	1.375071	1.252426	-0.600391
S	0.206171	0.271726	-1.474691
C	2.039271	1.809826	1.826709
H	1.713171	1.536226	2.848809
H	1.966871	2.914026	1.738309
H	3.114071	1.546726	1.738309
C	-0.515729	-1.774674	0.012109
H	-1.451129	-1.774374	0.552009
H	-0.925229	-2.478474	-0.697391
H	-0.042129	-2.293574	0.832309
H	2.102171	1.862626	-1.149491
$end

$rem
JOBTYPE		SP
EXCHANGE	HF
CORRELATION	pRIMP2
BASIS		cc-pvtz
METHOD		rimp2
AUX_BASIS	rimp2-cc-pvtz
SOLVENT_METHOD	PCM
PURECART	11111
SYMMETRY	false
MEM_TOTAL	110000
SCF_CONVERGENCE = 6
THRESH=10
$end



$solvent
dielectric 4.90
$end
--------------------------------------------------------------
 ----------------------------------------------------------------
             Standard Nuclear Orientation (Angstroms)
    I     Atom           X                Y                Z
 ----------------------------------------------------------------
    1      C      -0.5157290000    -0.3339740000     0.0121090000
    2      C       0.1458710000     0.2211260000     1.1115090000
    3      C       1.2059710000     1.1106260000     0.7888090000
    4      H      -0.1366290000    -0.0159740000     2.1482090000
    5      C       1.3750710000     1.2524260000    -0.6003910000
    6      S       0.2061710000     0.2717260000    -1.4746910000
    7      C       2.0392710000     1.8098260000     1.8267090000
    8      H       1.7131710000     1.5362260000     2.8488090000
    9      H       1.9668710000     2.9140260000     1.7383090000
   10      H       3.1140710000     1.5467260000     1.7383090000
   11      C      -0.5157290000    -1.7746740000     0.0121090000
   12      H      -1.4511290000    -1.7743740000     0.5520090000
   13      H      -0.9252290000    -2.4784740000    -0.6973910000
   14      H      -0.0421290000    -2.2935740000     0.8323090000
   15      H       2.1021710000     1.8626260000    -1.1494910000
 ----------------------------------------------------------------
 Nuclear Repulsion Energy =         348.27614189 hartrees
 There are       30 alpha and       30 beta electrons

 Q-Chem warning in module forms1/BasisType.C, line 2236:

 You are not using the predefined 5D/6D in this basis set.

 Requested basis set is cc-pVTZ
 There are 120 shells and 326 basis functions

 Total QAlloc Memory Limit 110000 MB
 Mega-Array Size       188 MB
 MEM_STATIC part       192 MB
 Discretize the solute cavity surface with Lebedev spheres
	Using 110 Lebedev grid points for each H atom
	Using 194 Lebedev grid points for other atoms
	Atomic van der Waals radii will be scaled by 1.20
 Remove points where switching function is < 1.0e-08
 Keep 1050 surface tesserae and discard 1188 interior tesserae
 Molecular Surface Area = 156.530 Angst**2

                       Distance Matrix (Angstroms)
             C (  1)   C (  2)   C (  3)   H (  4)   C (  5)   S (  6)
   C (  2)  1.398045
   C (  3)  2.377895  1.420971
   H (  4)  2.192661  1.100350  2.218056
   C (  5)  2.543019  2.346298  1.406620  3.383619
   S (  6)  1.760280  2.587398  2.612812  3.650437  1.758551
   C (  7)  3.796930  2.573022  1.503498  2.858575  2.577338  4.077407
   H (  8)  4.063559  2.684051  2.163790  2.514344  3.477332  4.750017
   H (  9)  4.437631  3.310684  2.175493  3.630101  2.929276  4.517210
   H ( 10)  4.437595  3.310635  2.175449  3.630028  2.929207  4.517176
   C ( 11)  1.440700  2.372680  3.448546  2.792788  3.621273  2.630488
   H ( 12)  1.800338  2.616385  3.929310  2.714357  4.298482  3.322752
   H ( 13)  2.295640  3.421581  4.430851  3.844897  4.384108  3.073737
   H ( 14)  2.176478  2.537127  3.626048  2.632107  4.078627  3.458998
   H ( 15)  3.609400  3.410829  2.263998  4.406380  1.096599  2.496304
             C (  7)   H (  8)   H (  9)   H ( 10)   C ( 11)   H ( 12)
   H (  8)  1.107198
   H (  9)  1.110096  1.787710
   H ( 10)  1.110059  1.787692  1.784819
   C ( 11)  4.761243  4.896623  5.579156  5.214107
   H ( 12)  5.162775  5.123296  5.922088  5.768714  1.080030
   H ( 13)  5.792138  5.971139  6.586041  6.200872  1.080007  1.527523
   H ( 14)  4.707329  4.670623  5.654734  5.052756  1.079945  1.527553
   H ( 15)  2.977333  4.030417  3.076221  3.076219  4.629543  5.361792
             H ( 13)   H ( 14)
   H ( 14)  1.775961
   H ( 15)  5.311751  5.079326
 
 Requested basis set is rimp2-cc-pVTZ
 There are 250 shells and 848 basis functions
 A cutoff of  1.0D-10 yielded   6280 shell pairs
 There are     46136 function pairs (     59343 Cartesian)
 Smallest overlap matrix eigenvalue = 1.30E-04

 Scale SEOQF with 1.000000e-01/1.000000e-01/1.000000e-01

 Standard Electronic Orientation quadrupole field applied
 Nucleus-field energy     =    -0.0000000007 hartrees
 Guess from superposition of atomic densities
 Warning:  Energy on first SCF cycle will be non-variational
 SAD guess density has 60.000000 electrons

 -----------------------------------------------------------------------
  General SCF calculation program by
  Eric Jon Sundstrom, Paul Horn, Yuezhi Mao, Dmitri Zuev, Alec White,
  David Stuck, Shaama M.S., Shane Yost, Joonho Lee, David Small,
  Daniel Levine, Susi Lehtola, Hugh Burton, Evgeny Epifanovsky,
  Bang C. Huynh
 -----------------------------------------------------------------------
 Hartree-Fock
 A restricted SCF calculation will be
 performed using DIIS
 SCF converges when DIIS error is below 1.0e-06
 ---------------------------------------
  Cycle       Energy         DIIS error
 ---------------------------------------
    1    -632.1575572152      2.94e-02  
    2    -629.2880289883      1.89e-03  
    3    -629.3573957340      6.19e-04  
    4    -629.3644679506      3.06e-04  
    5    -629.3661829376      6.31e-05  
    6    -629.3663305899      2.73e-05  
    7    -629.3663721895      1.27e-05  
    8    -629.3663864268      5.85e-06  
    9    -629.3663888223      2.31e-06  
   10    -629.3663891662      1.06e-06  
   11    -629.3663892374      4.18e-07  Convergence criterion met
 ---------------------------------------
 SCF time:   CPU 157.99s  wall 159.00s 

************** Final PCM Free Energy Summary **************
 G_electrostatic  =      -0.00553993 hartree =      -3.47635871 kcal/mol
 G_cavitation     =       0.00000000 hartree =       0.00000000 kcal/mol
 G_dispersion     =       0.00000000 hartree =       0.00000000 kcal/mol
 G_repulsion      =       0.00000000 hartree =       0.00000000 kcal/mol
 --------------------------------------------------
 Non-electrostatic Free Energy =       0.00000000 hartree =       0.00000000 kcal/mol
 Total                         =      -0.00553993 hartree =      -3.47635871 kcal/mol
 --------------------------------------------------
 SCF Energy (H0 + V/2)                       =    -629.36638924 
 Solute Internal Energy (H0)                 =    -629.36084931 
 Total Free Energy (H0 + V/2 + non-elec)     =    -629.36638924 hartree
                                             = -394933.36997554 kcal/mol
***********************************************************

 SCF   energy in the final basis set =     -629.3663892374
 Total energy in the final basis set =     -629.3663892374


 --------------------------------------------------------------
  Generalized many-body perturbation theory program
  by Joonho Lee, Fazle Rob, Xintian Feng, Evgeny Epifanovsky

 No regularization used 
 (reg. param. = 0.0000e+00)
  (P|Q)^-1/2 Time:  CPU 0.48 s  wall 0.48 s

 In RI-MP2 calculation: 
 # of frozen core orbitals: 11

 Components of the RIMP2 correlation energy:
        aaaa    correlation energy =        -0.1476096916 a.u.
        abab    correlation energy =        -0.8943915611 a.u.
        bbbb    correlation energy =        -0.1476096916 a.u.
        non-Brillouin singles      =        -0.0000000000 a.u.
        total same-spin energy     =        -0.2952193831 a.u.
        total opposite-spin energy =        -0.8943915611 a.u.

 Total  RIMP2   correlation energy =        -1.1896109443 a.u.
        RIMP2         total energy =      -630.5560001817 a.u.

 RI-MP2 Energy Time:  CPU 11.17 s  wall 11.20 s
 
 --------------------------------------------------------------
 
                    Orbital Energies (a.u.)
 --------------------------------------------------------------
 
 Alpha MOs
 -- Occupied --
-91.9717 -11.2703 -11.2570 -11.2489 -11.2440 -11.2283 -11.2090  -8.9726
 -6.6534  -6.6525  -6.6522  -1.1674  -1.0543  -0.9981  -0.9377  -0.8832
 -0.7460  -0.7272  -0.6425  -0.5865  -0.5813  -0.5655  -0.5549  -0.5430
 -0.5161  -0.4912  -0.4595  -0.4260  -0.3362  -0.2893
 -- Virtual --
  0.0735   0.1429   0.1556   0.1752   0.1812   0.1880   0.2123   0.2191
  0.2264   0.2429   0.2488   0.2593   0.2867   0.3083   0.3400   0.3494
  0.3729   0.4018   0.4107   0.4207   0.4308   0.4544   0.4588   0.4708
  0.4827   0.4945   0.5170   0.5378   0.5516   0.5575   0.5630   0.5875
  0.5927   0.6040   0.6086   0.6220   0.6318   0.6404   0.6454   0.6492
  0.6541   0.6740   0.6833   0.6978   0.7119   0.7358   0.7544   0.7757
  0.8010   0.8061   0.8319   0.8612   0.8770   0.8879   0.9175   0.9396
  0.9555   0.9770   1.0244   1.0325   1.0361   1.0530   1.0576   1.0731
  1.0884   1.0983   1.1108   1.1297   1.1434   1.1727   1.1958   1.2198
  1.2308   1.2418   1.2558   1.2634   1.2825   1.2959   1.3103   1.3193
  1.3515   1.3853   1.3925   1.4155   1.4308   1.4480   1.4589   1.4777
  1.4811   1.4933   1.5088   1.5274   1.5384   1.5630   1.5740   1.5826
  1.5998   1.6144   1.6516   1.6611   1.6895   1.7033   1.7113   1.7377
  1.7558   1.7910   1.8065   1.8242   1.8767   1.9162   1.9346   1.9773
  1.9796   2.0397   2.1032   2.1319   2.1538   2.1851   2.2001   2.2172
  2.2641   2.2650   2.3499   2.4000   2.4134   2.4860   2.5307   2.5539
  2.5756   2.5880   2.6408   2.6572   2.6757   2.6798   2.6907   2.7357
  2.7526   2.7785   2.7885   2.8071   2.8185   2.8344   2.8452   2.8972
  2.9322   2.9578   2.9625   2.9811   2.9870   3.0349   3.0591   3.0801
  3.1093   3.1097   3.1238   3.1310   3.1555   3.1616   3.1711   3.1988
  3.2230   3.2402   3.2462   3.2609   3.2790   3.2872   3.2957   3.3216
  3.3377   3.3466   3.3829   3.3891   3.3981   3.4070   3.4226   3.4409
  3.4596   3.4672   3.4926   3.5084   3.5224   3.5304   3.5485   3.5659
  3.5772   3.6056   3.6062   3.6292   3.6330   3.6512   3.6738   3.6820
  3.6928   3.7254   3.7302   3.7535   3.7720   3.7812   3.8041   3.8133
  3.8324   3.8486   3.8659   3.8921   3.9150   3.9382   3.9523   3.9676
  3.9768   3.9911   4.0228   4.0355   4.0424   4.0563   4.0935   4.1173
  4.1340   4.1670   4.1870   4.2088   4.2222   4.2293   4.2532   4.2709
  4.2873   4.2995   4.3180   4.3418   4.3526   4.3757   4.4001   4.4076
  4.4191   4.4249   4.4427   4.4757   4.5242   4.5363   4.5585   4.5815
  4.5969   4.6378   4.6703   4.6798   4.6971   4.7217   4.7626   4.7964
  4.8311   4.8589   4.8699   4.9051   4.9102   4.9278   5.0114   5.1000
  5.1126   5.1214   5.1485   5.1862   5.2085   5.2577   5.2845   5.3204
  5.3691   5.4001   5.4164   5.4394   5.4846   5.5137   5.5490   5.5530
  5.6035   5.6136   5.6286   5.6873   5.7220   5.8034   5.8317   5.8776
  5.9297   5.9655   6.0630   6.1164   6.2196   6.2289   6.2625   6.3499
  6.4048   6.4815   9.3398  11.7066  12.8301  13.6214  14.1756  14.4261
 --------------------------------------------------------------
 
          Ground-State Mulliken Net Atomic Charges

     Atom                 Charge (a.u.)
  ----------------------------------------
      1 C                    -0.039152
      2 C                    -0.202781
      3 C                     0.011832
      4 H                     0.180762
      5 C                    -0.213028
      6 S                     0.007138
      7 C                    -0.268946
      8 H                     0.101505
      9 H                     0.106951
     10 H                     0.105686
     11 C                    -0.393925
     12 H                     0.125008
     13 H                     0.150280
     14 H                     0.135451
     15 H                     0.193221
  ----------------------------------------
  Sum of atomic charges =     0.000000

 -----------------------------------------------------------------
                    Cartesian Multipole Moments
 -----------------------------------------------------------------
    Charge (ESU x 10^10)
                -0.0000
    Dipole Moment (Debye)
         X       1.1450      Y      -0.0198      Z       1.9810
       Tot       2.2882
    Quadrupole Moments (Debye-Ang)
        XX     -48.9564     XY       5.7472     YY     -48.2101
        XZ       0.1568     YZ      -0.2863     ZZ     -48.0906
    Octopole Moments (Debye-Ang^2)
       XXX     -72.0819    XXY      -9.7143    XYY     -22.6088
       YYY     -50.3924    XXZ      -4.5589    XYZ      -2.8255
       YYZ      -3.1458    XZZ     -23.2216    YZZ     -14.4775
       ZZZ       2.1517
    Hexadecapole Moments (Debye-Ang^3)
      XXXX    -406.1769   XXXY    -156.4246   XXYY    -140.2454
      XYYY    -154.7076   YYYY    -482.1737   XXXZ     -75.6749
      XXYZ     -23.1927   XYYZ     -24.8472   YYYZ     -60.2890
      XXZZ    -146.7730   XYZZ     -46.9672   YYZZ    -160.6424
      XZZZ     -76.7984   YZZZ     -61.6958   ZZZZ    -481.9730
 -----------------------------------------------------------------
 Total job time:  170.43s(wall), 169.51s(cpu) 
 Sun Jul 10 10:05:53 2022

        *************************************************************
        *                                                           *
        *  Thank you very much for using Q-Chem.  Have a nice day.  *
        *                                                           *
        *************************************************************


remove work dirs ./qchem1920320.0 -- ./qchem1920320.-1
rm -rf ./qchem1920320
