You are running Q-Chem version: 5.4.0

#
# job setting
#
local host:  exp-1-06
current dir: /expanse/lustre/scratch/theleonzhang/temp_project/Hydrogenated_Impropers_Test
input file:  Methylthiophene_Phi_0_Theta_190_Methylthiophene_Hydrogenated_Improper_Alternate.qcin
output file: 
nprocs     : 0
nthreads   : 1
#
# qchem installation setting
#
QC:          /cm/shared/apps/spack/cpu/opt/spack/linux-centos8-zen2/gcc-10.2.0/qchem-5.4-akfmr7b3t57bfs6qan3padb2wnb2i7cl
QCAUX:       /cm/shared/apps/spack/cpu/opt/spack/linux-centos8-zen2/gcc-10.2.0/qchem-5.4-akfmr7b3t57bfs6qan3padb2wnb2i7cl/qcaux
QCPROG:      /cm/shared/apps/spack/cpu/opt/spack/linux-centos8-zen2/gcc-10.2.0/qchem-5.4-akfmr7b3t57bfs6qan3padb2wnb2i7cl/exe/qcprog.exe_s
QCPROG_S:    /cm/shared/apps/spack/cpu/opt/spack/linux-centos8-zen2/gcc-10.2.0/qchem-5.4-akfmr7b3t57bfs6qan3padb2wnb2i7cl/exe/qcprog.exe_s
PARALLEL:    -DSERIAL
QCMPI:       mpich
#
# qchem directory setting
#
qcrun:       qchem1876183
QCSCRATCH:   .
QCLOCALSCR:  
QCTMPDIR:    .
QCFILEPREF:  ./qchem1876183
QCSAVEDIR:   
workdirs:    ./qchem1876183
workdir0:    ./qchem1876183
partmpdirs =  
#
# parallel setting
#
QCRSH:           ssh
QCMPI:           mpich
QCMPIRUN:        /cm/shared/apps/spack/cpu/opt/spack/linux-centos8-zen2/gcc-10.2.0/qchem-5.4-akfmr7b3t57bfs6qan3padb2wnb2i7cl/bin/mpi/mpirun_qchem
QCMACHINEFILE:   ./qchem1876183/hostfile

#
# env setting
#
exported envs:   QC QCAUX QCSCRATCH QCRUNNAME QCFILEPREF QCPROG QCPROG_S GUIFILE

Running Job 1 of 1 Methylthiophene_Phi_0_Theta_190_Methylthiophene_Hydrogenated_Improper_Alternate.qcin
qchem Methylthiophene_Phi_0_Theta_190_Methylthiophene_Hydrogenated_Improper_Alternate.qcin_1876183.0 ./qchem1876183/ 0
/cm/shared/apps/spack/cpu/opt/spack/linux-centos8-zen2/gcc-10.2.0/qchem-5.4-akfmr7b3t57bfs6qan3padb2wnb2i7cl/exe/qcprog.exe_s Methylthiophene_Phi_0_Theta_190_Methylthiophene_Hydrogenated_Improper_Alternate.qcin_1876183.0 ./qchem1876183/
                  Welcome to Q-Chem
     A Quantum Leap Into The Future Of Chemistry


 Q-Chem 5.4, Q-Chem, Inc., Pleasanton, CA (2021)

 License issued to: University of California, San Diego (site)

 E. Epifanovsky,  A. T. B. Gilbert,  Xintian Feng,  Joonho Lee,  Yuezhi Mao,  
 N. Mardirossian,  P. Pokhilko,  A. White,  M. Wormit,  M. P. Coons,  
 A. L. Dempwolff,  Zhengting Gan,  D. Hait,  P. R. Horn,  L. D. Jacobson,  
 I. Kaliman,  J. Kussmann,  A. W. Lange,  Ka Un Lao,  D. S. Levine,  Jie Liu,  
 S. C. McKenzie,  A. F. Morrison,  K. Nanda,  F. Plasser,  D. R. Rehn,  
 M. L. Vidal,  Zhi-Qiang You,  Ying Zhu,  B. Alam,  B. Albrecht,  
 A. Aldossary,  E. Alguire,  J. H. Andersen,  D. Barton,  K. Begam,  A. Behn,  
 Y. A. Bernard,  E. J. Berquist,  H. Burton,  A. Carreras,  K. Carter-Fenk,  
 R. Chakraborty,  A. D. Chien,  K. D. Closser,  V. Cofer-Shabica,  
 S. Dasgupta,  Jia Deng,  M. de Wergifosse,  M. Diedenhofen,  Hainam Do,  
 S. Ehlert,  Po-Tung Fang,  S. Fatehi,  Qingguo Feng,  J. Gayvert,  
 Qinghui Ge,  G. Gidofalvi,  M. Goldey,  J. Gomes,  C. Gonzalez-Espinoza,  
 S. Gulania,  A. Gunina,  M. W. D. Hanson-Heine,  P. H. P. Harbach,  
 A. W. Hauser,  M. F. Herbst,  M. Hernandez Vera,  M. Hodecker,  
 Z. C. Holden,  S. Houck,  Xunkun Huang,  Kerwin Hui,  B. C. Huynh,  
 M. Ivanov,  Hyunjun Ji,  Hanjie Jiang,  B. Kaduk,  S. Kaehler,  
 K. Khistyaev,  Jaehoon Kim,  P. Klunzinger,  Z. Koczor-Benda,  
 Joong Hoon Koh,  D. Kosenkov,  L. Koulias,  T. Kowalczyk,  C. M. Krauter,  
 K. Kue,  A. Kunitsa,  T. Kus,  A. Landau,  K. V. Lawler,  D. Lefrancois,  
 S. Lehtola,  Rain Li,  Yi-Pei Li,  Jiashu Liang,  M. Liebenthal,  
 Hung-Hsuan Lin,  You-Sheng Lin,  Fenglai Liu,  Kuan-Yu Liu,  
 M. Loipersberger,  A. Luenser,  A. Manjanath,  P. Manohar,  E. Mansoor,  
 S. F. Manzer,  Shan-Ping Mao,  A. V. Marenich,  T. Markovich,  S. Mason,  
 S. A. Maurer,  P. F. McLaughlin,  M. F. S. J. Menger,  J.-M. Mewes,  
 S. A. Mewes,  P. Morgante,  J. W. Mullinax,  T. S. Nguyen-Beck,  
 K. J. Oosterbaan,  G. Paran,  Alexander C. Paul,  Suranjan K. Paul,  
 F. Pavosevic,  Zheng Pei,  S. Prager,  E. I. Proynov,  E. Ramos,  B. Rana,  
 A. E. Rask,  A. Rettig,  R. M. Richard,  F. Rob,  E. Rossomme,  T. Scheele,  
 M. Scheurer,  M. Schneider,  N. Sergueev,  S. M. Sharada,  W. Skomorowski,  
 D. W. Small,  C. J. Stein,  Yu-Chuan Su,  E. J. Sundstrom,  Zhen Tao,  
 J. Thirman,  T. Tsuchimochi,  N. M. Tubman,  S. P. Veccham,  O. Vydrov,  
 J. Wenzel,  J. Witte,  A. Yamada,  Kun Yao,  S. Yeganeh,  S. R. Yost,  
 A. Zech,  Igor Ying Zhang,  Xing Zhang,  Yu Zhang,  D. Zuev,  
 A. Aspuru-Guzik,  A. T. Bell,  N. A. Besley,  K. B. Bravaya,  B. R. Brooks,  
 D. Casanova,  Jeng-Da Chai,  S. Coriani,  C. J. Cramer,  
 A. E. DePrince, III,  R. A. DiStasio Jr.,  A. Dreuw,  B. D. Dunietz,  
 T. R. Furlani,  W. A. Goddard III,  S. Grimme,  S. Hammes-Schiffer,  
 T. Head-Gordon,  W. J. Hehre,  Chao-Ping Hsu,  T.-C. Jagau,  Yousung Jung,  
 A. Klamt,  Jing Kong,  D. S. Lambrecht,  WanZhen Liang,  N. J. Mayhall,  
 C. W. McCurdy,  J. B. Neaton,  C. Ochsenfeld,  J. A. Parkhill,  R. Peverati,  
 V. A. Rassolov,  Yihan Shao,  L. V. Slipchenko,  T. Stauch,  R. P. Steele,  
 J. E. Subotnik,  A. J. W. Thom,  A. Tkatchenko,  D. G. Truhlar,  
 T. Van Voorhis,  T. A. Wesolowski,  K. B. Whaley,  H. L. Woodcock III,  
 P. M. Zimmerman,  S. Faraji,  P. M. W. Gill,  M. Head-Gordon,  
 J. M. Herbert,  A. I. Krylov

 Contributors to earlier versions of Q-Chem not listed above: 
 R. D. Adamson,  B. Austin,  R. Baer,  J. Baker,  G. J. O. Beran,  
 K. Brandhorst,  S. T. Brown,  E. F. C. Byrd,  A. K. Chakraborty,  
 G. K. L. Chan,  Chun-Min Chang,  Yunqing Chen,  C.-L. Cheng,  
 Siu Hung Chien,  D. M. Chipman,  D. L. Crittenden,  H. Dachsel,  
 R. J. Doerksen,  A. D. Dutoi,  R. G. Edgar,  J. Fosso-Tande,  
 L. Fusti-Molnar,  D. Ghosh,  A. Ghysels,  A. Golubeva-Zadorozhnaya,  
 J. Gonthier,  M. S. Gordon,  S. R. Gwaltney,  G. Hawkins,  J. E. Herr,  
 A. Heyden,  S. Hirata,  E. G. Hohenstein,  G. Kedziora,  F. J. Keil,  
 C. Kelley,  Jihan Kim,  R. A. King,  R. Z. Khaliullin,  P. P. Korambath,  
 W. Kurlancheek,  A. Laurent,  A. M. Lee,  M. S. Lee,  S. V. Levchenko,  
 Ching Yeh Lin,  D. Liotard,  E. Livshits,  R. C. Lochan,  I. Lotan,  
 L. A. Martinez-Martinez,  P. E. Maslen,  N. Nair,  D. P. O'Neill,  
 D. Neuhauser,  E. Neuscamman,  C. M. Oana,  R. Olivares-Amaya,  R. Olson,  
 T. M. Perrine,  B. Peters,  P. A. Pieniazek,  A. Prociuk,  Y. M. Rhee,  
 J. Ritchie,  M. A. Rohrdanz,  E. Rosta,  N. J. Russ,  H. F. Schaefer III,  
 M. W. Schmidt,  N. E. Schultz,  S. Sharma,  N. Shenvi,  C. D. Sherrill,  
 A. C. Simmonett,  A. Sodt,  T. Stein,  D. Stuck,  K. S. Thanthiriwatte,  
 V. Vanovschi,  L. Vogt,  Tao Wang,  A. Warshel,  M. A. Watson,  
 C. F. Williams,  Q. Wu,  X. Xu,  Jun Yang,  W. Zhang,  Yan Zhao

 Please cite Q-Chem as follows:
 Y. Shao et al., Mol. Phys. 113, 184-215 (2015)
 DOI: 10.1080/00268976.2014.952696

 Q-Chem 5.4.0 for Intel X86 EM64T Linux

 Parts of Q-Chem use Armadillo 9.800.1 (Horizon Scraper).
 http://arma.sourceforge.net/

 Q-Chem begins on Sun Jul 10 10:02:03 2022  

 Host: 
0

     Scratch files written to ./qchem1876183//
 May1621 |scratch|qcdevops|jenkins|workspace|build_RNUM    
 Processing $rem in /cm/shared/apps/spack/cpu/opt/spack/linux-centos8-zen2/gcc-10.2.0/qchem-5.4-akfmr7b3t57bfs6qan3padb2wnb2i7cl/config/preferences:
 Processing $rem in /home/theleonzhang/.qchemrc:
 Symmetry turned off for PCM/SM12/SMD calculation
 Core orbitals will be frozen

 Checking the input file for inconsistencies... 	...done.

--------------------------------------------------------------
User input:
--------------------------------------------------------------
$molecule
0 1
C	0.004661	-0.576309	0.016441
C	0.004661	0.287291	1.115841
C	0.004761	1.671191	0.793141
H	0.004661	-0.081509	2.152541
C	0.004761	1.891891	-0.596059
S	0.004661	0.366091	-1.470359
C	0.004761	2.758991	1.831041
H	0.004761	2.333291	2.853141
H	-0.887639	3.413291	1.742641
H	0.897161	3.413191	1.742641
C	0.004661	-2.017009	0.016441
H	-1.058939	-2.017209	-0.171259
H	-0.137639	-2.720809	0.823141
H	0.169161	-2.535909	-0.916259
H	0.004761	2.841091	-1.145159
$end

$rem
JOBTYPE		SP
EXCHANGE	HF
CORRELATION	pRIMP2
BASIS		cc-pvtz
METHOD		rimp2
AUX_BASIS	rimp2-cc-pvtz
SOLVENT_METHOD	PCM
PURECART	11111
SYMMETRY	false
MEM_TOTAL	110000
SCF_CONVERGENCE = 6
THRESH=10
$end



$solvent
dielectric 4.90
$end
--------------------------------------------------------------
 ----------------------------------------------------------------
             Standard Nuclear Orientation (Angstroms)
    I     Atom           X                Y                Z
 ----------------------------------------------------------------
    1      C       0.0046610000    -0.5763090000     0.0164410000
    2      C       0.0046610000     0.2872910000     1.1158410000
    3      C       0.0047610000     1.6711910000     0.7931410000
    4      H       0.0046610000    -0.0815090000     2.1525410000
    5      C       0.0047610000     1.8918910000    -0.5960590000
    6      S       0.0046610000     0.3660910000    -1.4703590000
    7      C       0.0047610000     2.7589910000     1.8310410000
    8      H       0.0047610000     2.3332910000     2.8531410000
    9      H      -0.8876390000     3.4132910000     1.7426410000
   10      H       0.8971610000     3.4131910000     1.7426410000
   11      C       0.0046610000    -2.0170090000     0.0164410000
   12      H      -1.0589390000    -2.0172090000    -0.1712590000
   13      H      -0.1376390000    -2.7208090000     0.8231410000
   14      H       0.1691610000    -2.5359090000    -0.9162590000
   15      H       0.0047610000     2.8410910000    -1.1451590000
 ----------------------------------------------------------------
 Nuclear Repulsion Energy =         344.46443198 hartrees
 There are       30 alpha and       30 beta electrons

 Q-Chem warning in module forms1/BasisType.C, line 2236:

 You are not using the predefined 5D/6D in this basis set.

 Requested basis set is cc-pVTZ
 There are 120 shells and 326 basis functions

 Total QAlloc Memory Limit 110000 MB
 Mega-Array Size       188 MB
 MEM_STATIC part       192 MB
 Discretize the solute cavity surface with Lebedev spheres
	Using 110 Lebedev grid points for each H atom
	Using 194 Lebedev grid points for other atoms
	Atomic van der Waals radii will be scaled by 1.20
 Remove points where switching function is < 1.0e-08
 Keep 1063 surface tesserae and discard 1175 interior tesserae
 Molecular Surface Area = 159.654 Angst**2

                       Distance Matrix (Angstroms)
             C (  1)   C (  2)   C (  3)   H (  4)   C (  5)   S (  6)
   C (  2)  1.398029
   C (  3)  2.377923  1.421026
   H (  4)  2.192658  1.100346  2.218091
   C (  5)  2.543063  2.346347  1.406622  3.383653
   S (  6)  1.760310  2.587400  2.612799  3.650445  1.758541
   C (  7)  3.796972  2.573094  1.503511  2.858636  2.577339  4.077403
   H (  8)  4.063575  2.684088  2.163788  2.514379  3.477329  4.750003
   H (  9)  4.437665  3.310733  2.175509  3.630130  2.929258  4.517189
   H ( 10)  4.437616  3.310693  2.175429  3.630083  2.929206  4.517161
   C ( 11)  1.440700  2.553131  3.769096  2.882548  3.956596  2.808868
   H ( 12)  1.800741  2.845802  3.958007  3.205967  4.073448  2.915309
   H ( 13)  2.295625  3.025655  4.394410  2.958624  4.828189  3.848291
   H ( 14)  2.176470  3.482377  4.544091  3.933023  4.442406  2.959002
   H ( 15)  3.609423  3.410867  2.263995  4.406406  1.096582  2.496273
             C (  7)   H (  8)   H (  9)   H ( 10)   C ( 11)   H ( 12)
   H (  8)  1.107208
   H (  9)  1.110090  1.787733
   H ( 10)  1.110032  1.787672  1.784800
   C ( 11)  5.109105  5.193455  5.767506  5.767443
   H ( 12)  5.287036  5.404193  5.760442  6.081002  1.080035
   H ( 13)  5.573540  5.448404  6.247813  6.288263  1.079976  1.527311
   H ( 14)  5.967466  6.159912  6.601481  6.556792  1.079929  1.527188
   H ( 15)  2.977332  4.030417  3.076228  3.076210  4.995043  5.067842
             H ( 13)   H ( 14)
   H ( 14)  1.775902
   H ( 15)  5.901628  5.384380
 
 Requested basis set is rimp2-cc-pVTZ
 There are 250 shells and 848 basis functions
 A cutoff of  1.0D-10 yielded   6165 shell pairs
 There are     45125 function pairs (     58020 Cartesian)
 Smallest overlap matrix eigenvalue = 8.12E-05

 Scale SEOQF with 1.000000e+00/1.000000e-01/1.000000e-01

 Standard Electronic Orientation quadrupole field applied
 Nucleus-field energy     =     0.0000000033 hartrees
 Guess from superposition of atomic densities
 Warning:  Energy on first SCF cycle will be non-variational
 SAD guess density has 60.000000 electrons

 -----------------------------------------------------------------------
  General SCF calculation program by
  Eric Jon Sundstrom, Paul Horn, Yuezhi Mao, Dmitri Zuev, Alec White,
  David Stuck, Shaama M.S., Shane Yost, Joonho Lee, David Small,
  Daniel Levine, Susi Lehtola, Hugh Burton, Evgeny Epifanovsky,
  Bang C. Huynh
 -----------------------------------------------------------------------
 Hartree-Fock
 A restricted SCF calculation will be
 performed using DIIS
 SCF converges when DIIS error is below 1.0e-06
 ---------------------------------------
  Cycle       Energy         DIIS error
 ---------------------------------------
    1    -632.0957933014      2.91e-02  
    2    -629.3431309449      1.96e-03  
    3    -629.4138930599      7.23e-04  
    4    -629.4218798846      3.68e-04  
    5    -629.4242488951      6.25e-05  
    6    -629.4243841122      2.62e-05  
    7    -629.4244170606      1.12e-05  
    8    -629.4244261033      5.19e-06  
    9    -629.4244275561      1.70e-06  
   10    -629.4244277430      7.10e-07  Convergence criterion met
 ---------------------------------------
 SCF time:   CPU 144.33s  wall 146.00s 

************** Final PCM Free Energy Summary **************
 G_electrostatic  =      -0.00587796 hartree =      -3.68847523 kcal/mol
 G_cavitation     =       0.00000000 hartree =       0.00000000 kcal/mol
 G_dispersion     =       0.00000000 hartree =       0.00000000 kcal/mol
 G_repulsion      =       0.00000000 hartree =       0.00000000 kcal/mol
 --------------------------------------------------
 Non-electrostatic Free Energy =       0.00000000 hartree =       0.00000000 kcal/mol
 Total                         =      -0.00587796 hartree =      -3.68847523 kcal/mol
 --------------------------------------------------
 SCF Energy (H0 + V/2)                       =    -629.42442774 
 Solute Internal Energy (H0)                 =    -629.41854978 
 Total Free Energy (H0 + V/2 + non-elec)     =    -629.42442774 hartree
                                             = -394969.78968751 kcal/mol
***********************************************************

 SCF   energy in the final basis set =     -629.4244277430
 Total energy in the final basis set =     -629.4244277430


 --------------------------------------------------------------
  Generalized many-body perturbation theory program
  by Joonho Lee, Fazle Rob, Xintian Feng, Evgeny Epifanovsky

 No regularization used 
 (reg. param. = 0.0000e+00)
  (P|Q)^-1/2 Time:  CPU 0.49 s  wall 0.49 s

 In RI-MP2 calculation: 
 # of frozen core orbitals: 11

 Components of the RIMP2 correlation energy:
        aaaa    correlation energy =        -0.1449990390 a.u.
        abab    correlation energy =        -0.8848380224 a.u.
        bbbb    correlation energy =        -0.1449990390 a.u.
        non-Brillouin singles      =        -0.0000000000 a.u.
        total same-spin energy     =        -0.2899980780 a.u.
        total opposite-spin energy =        -0.8848380224 a.u.

 Total  RIMP2   correlation energy =        -1.1748361005 a.u.
        RIMP2         total energy =      -630.5992638435 a.u.

 RI-MP2 Energy Time:  CPU 11.21 s  wall 11.28 s
 
 --------------------------------------------------------------
 
                    Orbital Energies (a.u.)
 --------------------------------------------------------------
 
 Alpha MOs
 -- Occupied --
-91.9790 -11.2855 -11.2489 -11.2467 -11.2262 -11.2223 -11.2220  -8.9788
 -6.6598  -6.6593  -6.6586  -1.1602  -1.0564  -0.9967  -0.9431  -0.8823
 -0.7443  -0.7182  -0.6496  -0.5870  -0.5752  -0.5669  -0.5531  -0.5471
 -0.5072  -0.4946  -0.4659  -0.4570  -0.3389  -0.2886
 -- Virtual --
  0.1144   0.1440   0.1479   0.1745   0.1889   0.1989   0.2053   0.2168
  0.2241   0.2426   0.2466   0.2569   0.2928   0.3300   0.3440   0.3544
  0.3866   0.3917   0.4004   0.4244   0.4300   0.4628   0.4698   0.4913
  0.4989   0.5137   0.5199   0.5323   0.5562   0.5579   0.5780   0.5949
  0.5980   0.6058   0.6179   0.6203   0.6345   0.6399   0.6436   0.6485
  0.6564   0.6688   0.6916   0.7016   0.7194   0.7403   0.7892   0.7914
  0.8111   0.8395   0.8468   0.8528   0.8852   0.8897   0.9073   0.9394
  0.9464   0.9715   0.9898   1.0268   1.0418   1.0545   1.0591   1.0780
  1.0824   1.0972   1.1042   1.1160   1.1355   1.1646   1.1733   1.2078
  1.2395   1.2527   1.2538   1.2664   1.2735   1.2935   1.3085   1.3287
  1.3774   1.3844   1.3933   1.4113   1.4384   1.4409   1.4531   1.4844
  1.5027   1.5057   1.5234   1.5363   1.5473   1.5585   1.5758   1.5944
  1.6092   1.6348   1.6415   1.6792   1.6924   1.7063   1.7275   1.7451
  1.7809   1.7831   1.8058   1.8469   1.8916   1.9023   1.9303   1.9545
  2.0272   2.0710   2.0859   2.1354   2.1806   2.2047   2.2332   2.2620
  2.2943   2.3044   2.3483   2.4139   2.4546   2.4612   2.4809   2.5275
  2.5600   2.6011   2.6467   2.6697   2.6871   2.7028   2.7240   2.7336
  2.7369   2.7592   2.7777   2.8002   2.8142   2.8440   2.8560   2.8753
  2.9079   2.9286   2.9530   2.9710   3.0159   3.0279   3.0514   3.0696
  3.0810   3.1140   3.1240   3.1348   3.1575   3.1618   3.1807   3.1826
  3.2274   3.2382   3.2496   3.2678   3.2992   3.3094   3.3139   3.3293
  3.3471   3.3522   3.3784   3.3949   3.4014   3.4148   3.4298   3.4366
  3.4516   3.4563   3.4722   3.4948   3.5026   3.5106   3.5234   3.5410
  3.5824   3.5977   3.6173   3.6263   3.6278   3.6480   3.6546   3.6842
  3.6868   3.7121   3.7261   3.7382   3.7509   3.7725   3.7929   3.8046
  3.8086   3.8352   3.8678   3.8969   3.9165   3.9360   3.9550   3.9653
  3.9783   3.9933   4.0218   4.0337   4.0410   4.0595   4.0733   4.1077
  4.1241   4.1377   4.1814   4.2034   4.2148   4.2365   4.2501   4.2735
  4.2844   4.3029   4.3243   4.3320   4.3508   4.3563   4.3971   4.4008
  4.4113   4.4229   4.4443   4.4522   4.4701   4.5199   4.5544   4.5683
  4.6018   4.6169   4.6422   4.6659   4.7054   4.7261   4.7601   4.7783
  4.8244   4.8365   4.8755   4.8803   4.9140   4.9504   5.0749   5.1039
  5.1144   5.1436   5.1797   5.2051   5.2110   5.2644   5.2854   5.3325
  5.3774   5.4112   5.4184   5.4446   5.4811   5.5308   5.5542   5.5684
  5.5835   5.6096   5.6225   5.6549   5.7011   5.8090   5.8319   5.8685
  5.9297   6.0235   6.1234   6.1648   6.2275   6.2563   6.3090   6.3954
  6.4620   6.6318   9.2436  11.4150  12.9528  13.8443  14.1749  14.6448
 --------------------------------------------------------------
 
          Ground-State Mulliken Net Atomic Charges

     Atom                 Charge (a.u.)
  ----------------------------------------
      1 C                     0.063110
      2 C                    -0.306973
      3 C                     0.049978
      4 H                     0.177171
      5 C                    -0.280466
      6 S                     0.000026
      7 C                    -0.274151
      8 H                     0.101382
      9 H                     0.107317
     10 H                     0.107228
     11 C                    -0.383273
     12 H                     0.141505
     13 H                     0.165548
     14 H                     0.138134
     15 H                     0.193464
  ----------------------------------------
  Sum of atomic charges =     0.000000

 -----------------------------------------------------------------
                    Cartesian Multipole Moments
 -----------------------------------------------------------------
    Charge (ESU x 10^10)
                -0.0000
    Dipole Moment (Debye)
         X      -0.7278      Y      -0.7362      Z       1.2556
       Tot       1.6273
    Quadrupole Moments (Debye-Ang)
        XX     -54.3975     XY       1.5514     YY     -41.6491
        XZ      -0.1494     YZ       0.4544     ZZ     -48.6005
    Octopole Moments (Debye-Ang^2)
       XXX       0.5259    XXY     -31.3589    XYY      -2.9293
       YYY     -83.1554    XXZ      -1.8177    XYZ       0.5112
       YYZ      -3.9175    XZZ       0.3065    YZZ     -26.1802
       ZZZ       0.8208
    Hexadecapole Moments (Debye-Ang^3)
      XXXX     -77.6877   XXXY      -3.2518   XXYY    -163.8695
      XYYY       4.2273   YYYY    -808.6227   XXXZ       0.2560
      XXYZ     -30.5311   XYYZ      -1.5618   YYYZ    -106.5518
      XXZZ    -102.3262   XYZZ      -1.0587   YYZZ    -210.1773
      XZZZ      -0.2470   YZZZ    -102.1176   ZZZZ    -484.2374
 -----------------------------------------------------------------
 Total job time:  159.08s(wall), 155.90s(cpu) 
 Sun Jul 10 10:04:42 2022

        *************************************************************
        *                                                           *
        *  Thank you very much for using Q-Chem.  Have a nice day.  *
        *                                                           *
        *************************************************************


remove work dirs ./qchem1876183.0 -- ./qchem1876183.-1
rm -rf ./qchem1876183
You are running Q-Chem version: 5.4.0

#
# job setting
#
local host:  exp-12-30
current dir: /expanse/lustre/scratch/theleonzhang/temp_project/Hydrogenated_Impropers_Test
input file:  Methylthiophene_Phi_0_Theta_190_Methylthiophene_Hydrogenated_Improper_Alternate.qcin
output file: 
nprocs     : 0
nthreads   : 1
#
# qchem installation setting
#
QC:          /cm/shared/apps/spack/cpu/opt/spack/linux-centos8-zen2/gcc-10.2.0/qchem-5.4-akfmr7b3t57bfs6qan3padb2wnb2i7cl
QCAUX:       /cm/shared/apps/spack/cpu/opt/spack/linux-centos8-zen2/gcc-10.2.0/qchem-5.4-akfmr7b3t57bfs6qan3padb2wnb2i7cl/qcaux
QCPROG:      /cm/shared/apps/spack/cpu/opt/spack/linux-centos8-zen2/gcc-10.2.0/qchem-5.4-akfmr7b3t57bfs6qan3padb2wnb2i7cl/exe/qcprog.exe_s
QCPROG_S:    /cm/shared/apps/spack/cpu/opt/spack/linux-centos8-zen2/gcc-10.2.0/qchem-5.4-akfmr7b3t57bfs6qan3padb2wnb2i7cl/exe/qcprog.exe_s
PARALLEL:    -DSERIAL
QCMPI:       mpich
#
# qchem directory setting
#
qcrun:       qchem876409
QCSCRATCH:   .
QCLOCALSCR:  
QCTMPDIR:    .
QCFILEPREF:  ./qchem876409
QCSAVEDIR:   
workdirs:    ./qchem876409
workdir0:    ./qchem876409
partmpdirs =  
#
# parallel setting
#
QCRSH:           ssh
QCMPI:           mpich
QCMPIRUN:        /cm/shared/apps/spack/cpu/opt/spack/linux-centos8-zen2/gcc-10.2.0/qchem-5.4-akfmr7b3t57bfs6qan3padb2wnb2i7cl/bin/mpi/mpirun_qchem
QCMACHINEFILE:   ./qchem876409/hostfile

#
# env setting
#
exported envs:   QC QCAUX QCSCRATCH QCRUNNAME QCFILEPREF QCPROG QCPROG_S GUIFILE

Running Job 1 of 1 Methylthiophene_Phi_0_Theta_190_Methylthiophene_Hydrogenated_Improper_Alternate.qcin
qchem Methylthiophene_Phi_0_Theta_190_Methylthiophene_Hydrogenated_Improper_Alternate.qcin_876409.0 ./qchem876409/ 0
/cm/shared/apps/spack/cpu/opt/spack/linux-centos8-zen2/gcc-10.2.0/qchem-5.4-akfmr7b3t57bfs6qan3padb2wnb2i7cl/exe/qcprog.exe_s Methylthiophene_Phi_0_Theta_190_Methylthiophene_Hydrogenated_Improper_Alternate.qcin_876409.0 ./qchem876409/
                  Welcome to Q-Chem
     A Quantum Leap Into The Future Of Chemistry


 Q-Chem 5.4, Q-Chem, Inc., Pleasanton, CA (2021)

 License issued to: University of California, San Diego (site)

 E. Epifanovsky,  A. T. B. Gilbert,  Xintian Feng,  Joonho Lee,  Yuezhi Mao,  
 N. Mardirossian,  P. Pokhilko,  A. White,  M. Wormit,  M. P. Coons,  
 A. L. Dempwolff,  Zhengting Gan,  D. Hait,  P. R. Horn,  L. D. Jacobson,  
 I. Kaliman,  J. Kussmann,  A. W. Lange,  Ka Un Lao,  D. S. Levine,  Jie Liu,  
 S. C. McKenzie,  A. F. Morrison,  K. Nanda,  F. Plasser,  D. R. Rehn,  
 M. L. Vidal,  Zhi-Qiang You,  Ying Zhu,  B. Alam,  B. Albrecht,  
 A. Aldossary,  E. Alguire,  J. H. Andersen,  D. Barton,  K. Begam,  A. Behn,  
 Y. A. Bernard,  E. J. Berquist,  H. Burton,  A. Carreras,  K. Carter-Fenk,  
 R. Chakraborty,  A. D. Chien,  K. D. Closser,  V. Cofer-Shabica,  
 S. Dasgupta,  Jia Deng,  M. de Wergifosse,  M. Diedenhofen,  Hainam Do,  
 S. Ehlert,  Po-Tung Fang,  S. Fatehi,  Qingguo Feng,  J. Gayvert,  
 Qinghui Ge,  G. Gidofalvi,  M. Goldey,  J. Gomes,  C. Gonzalez-Espinoza,  
 S. Gulania,  A. Gunina,  M. W. D. Hanson-Heine,  P. H. P. Harbach,  
 A. W. Hauser,  M. F. Herbst,  M. Hernandez Vera,  M. Hodecker,  
 Z. C. Holden,  S. Houck,  Xunkun Huang,  Kerwin Hui,  B. C. Huynh,  
 M. Ivanov,  Hyunjun Ji,  Hanjie Jiang,  B. Kaduk,  S. Kaehler,  
 K. Khistyaev,  Jaehoon Kim,  P. Klunzinger,  Z. Koczor-Benda,  
 Joong Hoon Koh,  D. Kosenkov,  L. Koulias,  T. Kowalczyk,  C. M. Krauter,  
 K. Kue,  A. Kunitsa,  T. Kus,  A. Landau,  K. V. Lawler,  D. Lefrancois,  
 S. Lehtola,  Rain Li,  Yi-Pei Li,  Jiashu Liang,  M. Liebenthal,  
 Hung-Hsuan Lin,  You-Sheng Lin,  Fenglai Liu,  Kuan-Yu Liu,  
 M. Loipersberger,  A. Luenser,  A. Manjanath,  P. Manohar,  E. Mansoor,  
 S. F. Manzer,  Shan-Ping Mao,  A. V. Marenich,  T. Markovich,  S. Mason,  
 S. A. Maurer,  P. F. McLaughlin,  M. F. S. J. Menger,  J.-M. Mewes,  
 S. A. Mewes,  P. Morgante,  J. W. Mullinax,  T. S. Nguyen-Beck,  
 K. J. Oosterbaan,  G. Paran,  Alexander C. Paul,  Suranjan K. Paul,  
 F. Pavosevic,  Zheng Pei,  S. Prager,  E. I. Proynov,  E. Ramos,  B. Rana,  
 A. E. Rask,  A. Rettig,  R. M. Richard,  F. Rob,  E. Rossomme,  T. Scheele,  
 M. Scheurer,  M. Schneider,  N. Sergueev,  S. M. Sharada,  W. Skomorowski,  
 D. W. Small,  C. J. Stein,  Yu-Chuan Su,  E. J. Sundstrom,  Zhen Tao,  
 J. Thirman,  T. Tsuchimochi,  N. M. Tubman,  S. P. Veccham,  O. Vydrov,  
 J. Wenzel,  J. Witte,  A. Yamada,  Kun Yao,  S. Yeganeh,  S. R. Yost,  
 A. Zech,  Igor Ying Zhang,  Xing Zhang,  Yu Zhang,  D. Zuev,  
 A. Aspuru-Guzik,  A. T. Bell,  N. A. Besley,  K. B. Bravaya,  B. R. Brooks,  
 D. Casanova,  Jeng-Da Chai,  S. Coriani,  C. J. Cramer,  
 A. E. DePrince, III,  R. A. DiStasio Jr.,  A. Dreuw,  B. D. Dunietz,  
 T. R. Furlani,  W. A. Goddard III,  S. Grimme,  S. Hammes-Schiffer,  
 T. Head-Gordon,  W. J. Hehre,  Chao-Ping Hsu,  T.-C. Jagau,  Yousung Jung,  
 A. Klamt,  Jing Kong,  D. S. Lambrecht,  WanZhen Liang,  N. J. Mayhall,  
 C. W. McCurdy,  J. B. Neaton,  C. Ochsenfeld,  J. A. Parkhill,  R. Peverati,  
 V. A. Rassolov,  Yihan Shao,  L. V. Slipchenko,  T. Stauch,  R. P. Steele,  
 J. E. Subotnik,  A. J. W. Thom,  A. Tkatchenko,  D. G. Truhlar,  
 T. Van Voorhis,  T. A. Wesolowski,  K. B. Whaley,  H. L. Woodcock III,  
 P. M. Zimmerman,  S. Faraji,  P. M. W. Gill,  M. Head-Gordon,  
 J. M. Herbert,  A. I. Krylov

 Contributors to earlier versions of Q-Chem not listed above: 
 R. D. Adamson,  B. Austin,  R. Baer,  J. Baker,  G. J. O. Beran,  
 K. Brandhorst,  S. T. Brown,  E. F. C. Byrd,  A. K. Chakraborty,  
 G. K. L. Chan,  Chun-Min Chang,  Yunqing Chen,  C.-L. Cheng,  
 Siu Hung Chien,  D. M. Chipman,  D. L. Crittenden,  H. Dachsel,  
 R. J. Doerksen,  A. D. Dutoi,  R. G. Edgar,  J. Fosso-Tande,  
 L. Fusti-Molnar,  D. Ghosh,  A. Ghysels,  A. Golubeva-Zadorozhnaya,  
 J. Gonthier,  M. S. Gordon,  S. R. Gwaltney,  G. Hawkins,  J. E. Herr,  
 A. Heyden,  S. Hirata,  E. G. Hohenstein,  G. Kedziora,  F. J. Keil,  
 C. Kelley,  Jihan Kim,  R. A. King,  R. Z. Khaliullin,  P. P. Korambath,  
 W. Kurlancheek,  A. Laurent,  A. M. Lee,  M. S. Lee,  S. V. Levchenko,  
 Ching Yeh Lin,  D. Liotard,  E. Livshits,  R. C. Lochan,  I. Lotan,  
 L. A. Martinez-Martinez,  P. E. Maslen,  N. Nair,  D. P. O'Neill,  
 D. Neuhauser,  E. Neuscamman,  C. M. Oana,  R. Olivares-Amaya,  R. Olson,  
 T. M. Perrine,  B. Peters,  P. A. Pieniazek,  A. Prociuk,  Y. M. Rhee,  
 J. Ritchie,  M. A. Rohrdanz,  E. Rosta,  N. J. Russ,  H. F. Schaefer III,  
 M. W. Schmidt,  N. E. Schultz,  S. Sharma,  N. Shenvi,  C. D. Sherrill,  
 A. C. Simmonett,  A. Sodt,  T. Stein,  D. Stuck,  K. S. Thanthiriwatte,  
 V. Vanovschi,  L. Vogt,  Tao Wang,  A. Warshel,  M. A. Watson,  
 C. F. Williams,  Q. Wu,  X. Xu,  Jun Yang,  W. Zhang,  Yan Zhao

 Please cite Q-Chem as follows:
 Y. Shao et al., Mol. Phys. 113, 184-215 (2015)
 DOI: 10.1080/00268976.2014.952696

 Q-Chem 5.4.0 for Intel X86 EM64T Linux

 Parts of Q-Chem use Armadillo 9.800.1 (Horizon Scraper).
 http://arma.sourceforge.net/

 Q-Chem begins on Sun Jul 10 10:31:03 2022  

 Host: 
0

     Scratch files written to ./qchem876409//
 May1621 |scratch|qcdevops|jenkins|workspace|build_RNUM    
 Processing $rem in /cm/shared/apps/spack/cpu/opt/spack/linux-centos8-zen2/gcc-10.2.0/qchem-5.4-akfmr7b3t57bfs6qan3padb2wnb2i7cl/config/preferences:
 Processing $rem in /home/theleonzhang/.qchemrc:
 Symmetry turned off for PCM/SM12/SMD calculation
 Core orbitals will be frozen

 Checking the input file for inconsistencies... 	...done.

--------------------------------------------------------------
User input:
--------------------------------------------------------------
$molecule
0 1
C	0.004661	-0.576309	0.016441
C	0.004661	0.287291	1.115841
C	0.004761	1.671191	0.793141
H	0.004661	-0.081509	2.152541
C	0.004761	1.891891	-0.596059
S	0.004661	0.366091	-1.470359
C	0.004761	2.758991	1.831041
H	0.004761	2.333291	2.853141
H	-0.887639	3.413291	1.742641
H	0.897161	3.413191	1.742641
C	0.004661	-2.017009	0.016441
H	-1.058939	-2.017209	-0.171259
H	-0.137639	-2.720809	0.823141
H	0.169161	-2.535909	-0.916259
H	0.004761	2.841091	-1.145159
$end

$rem
JOBTYPE		SP
EXCHANGE	HF
CORRELATION	pRIMP2
BASIS		cc-pvtz
METHOD		rimp2
AUX_BASIS	rimp2-cc-pvtz
SOLVENT_METHOD	PCM
PURECART	11111
SYMMETRY	false
MEM_TOTAL	110000
SCF_CONVERGENCE = 6
THRESH=10
$end



$solvent
dielectric 4.90
$end
--------------------------------------------------------------
 ----------------------------------------------------------------
             Standard Nuclear Orientation (Angstroms)
    I     Atom           X                Y                Z
 ----------------------------------------------------------------
    1      C       0.0046610000    -0.5763090000     0.0164410000
    2      C       0.0046610000     0.2872910000     1.1158410000
    3      C       0.0047610000     1.6711910000     0.7931410000
    4      H       0.0046610000    -0.0815090000     2.1525410000
    5      C       0.0047610000     1.8918910000    -0.5960590000
    6      S       0.0046610000     0.3660910000    -1.4703590000
    7      C       0.0047610000     2.7589910000     1.8310410000
    8      H       0.0047610000     2.3332910000     2.8531410000
    9      H      -0.8876390000     3.4132910000     1.7426410000
   10      H       0.8971610000     3.4131910000     1.7426410000
   11      C       0.0046610000    -2.0170090000     0.0164410000
   12      H      -1.0589390000    -2.0172090000    -0.1712590000
   13      H      -0.1376390000    -2.7208090000     0.8231410000
   14      H       0.1691610000    -2.5359090000    -0.9162590000
   15      H       0.0047610000     2.8410910000    -1.1451590000
 ----------------------------------------------------------------
 Nuclear Repulsion Energy =         344.46443198 hartrees
 There are       30 alpha and       30 beta electrons

 Q-Chem warning in module forms1/BasisType.C, line 2236:

 You are not using the predefined 5D/6D in this basis set.

 Requested basis set is cc-pVTZ
 There are 120 shells and 326 basis functions

 Total QAlloc Memory Limit 110000 MB
 Mega-Array Size       188 MB
 MEM_STATIC part       192 MB
 Discretize the solute cavity surface with Lebedev spheres
	Using 110 Lebedev grid points for each H atom
	Using 194 Lebedev grid points for other atoms
	Atomic van der Waals radii will be scaled by 1.20
 Remove points where switching function is < 1.0e-08
 Keep 1063 surface tesserae and discard 1175 interior tesserae
 Molecular Surface Area = 159.654 Angst**2

                       Distance Matrix (Angstroms)
             C (  1)   C (  2)   C (  3)   H (  4)   C (  5)   S (  6)
   C (  2)  1.398029
   C (  3)  2.377923  1.421026
   H (  4)  2.192658  1.100346  2.218091
   C (  5)  2.543063  2.346347  1.406622  3.383653
   S (  6)  1.760310  2.587400  2.612799  3.650445  1.758541
   C (  7)  3.796972  2.573094  1.503511  2.858636  2.577339  4.077403
   H (  8)  4.063575  2.684088  2.163788  2.514379  3.477329  4.750003
   H (  9)  4.437665  3.310733  2.175509  3.630130  2.929258  4.517189
   H ( 10)  4.437616  3.310693  2.175429  3.630083  2.929206  4.517161
   C ( 11)  1.440700  2.553131  3.769096  2.882548  3.956596  2.808868
   H ( 12)  1.800741  2.845802  3.958007  3.205967  4.073448  2.915309
   H ( 13)  2.295625  3.025655  4.394410  2.958624  4.828189  3.848291
   H ( 14)  2.176470  3.482377  4.544091  3.933023  4.442406  2.959002
   H ( 15)  3.609423  3.410867  2.263995  4.406406  1.096582  2.496273
             C (  7)   H (  8)   H (  9)   H ( 10)   C ( 11)   H ( 12)
   H (  8)  1.107208
   H (  9)  1.110090  1.787733
   H ( 10)  1.110032  1.787672  1.784800
   C ( 11)  5.109105  5.193455  5.767506  5.767443
   H ( 12)  5.287036  5.404193  5.760442  6.081002  1.080035
   H ( 13)  5.573540  5.448404  6.247813  6.288263  1.079976  1.527311
   H ( 14)  5.967466  6.159912  6.601481  6.556792  1.079929  1.527188
   H ( 15)  2.977332  4.030417  3.076228  3.076210  4.995043  5.067842
             H ( 13)   H ( 14)
   H ( 14)  1.775902
   H ( 15)  5.901628  5.384380
 
 Requested basis set is rimp2-cc-pVTZ
 There are 250 shells and 848 basis functions
 A cutoff of  1.0D-10 yielded   6165 shell pairs
 There are     45125 function pairs (     58020 Cartesian)
 Smallest overlap matrix eigenvalue = 8.12E-05

 Scale SEOQF with 1.000000e+00/1.000000e-01/1.000000e-01

 Standard Electronic Orientation quadrupole field applied
 Nucleus-field energy     =     0.0000000033 hartrees
 Guess from superposition of atomic densities
 Warning:  Energy on first SCF cycle will be non-variational
 SAD guess density has 60.000000 electrons

 -----------------------------------------------------------------------
  General SCF calculation program by
  Eric Jon Sundstrom, Paul Horn, Yuezhi Mao, Dmitri Zuev, Alec White,
  David Stuck, Shaama M.S., Shane Yost, Joonho Lee, David Small,
  Daniel Levine, Susi Lehtola, Hugh Burton, Evgeny Epifanovsky,
  Bang C. Huynh
 -----------------------------------------------------------------------
 Hartree-Fock
 A restricted SCF calculation will be
 performed using DIIS
 SCF converges when DIIS error is below 1.0e-06
 ---------------------------------------
  Cycle       Energy         DIIS error
 ---------------------------------------
    1    -632.0957933014      2.91e-02  
    2    -629.3431309449      1.96e-03  
    3    -629.4138930599      7.23e-04  
    4    -629.4218798846      3.68e-04  
    5    -629.4242488951      6.25e-05  
    6    -629.4243841122      2.62e-05  
    7    -629.4244170606      1.12e-05  
    8    -629.4244261033      5.19e-06  
    9    -629.4244275561      1.70e-06  
   10    -629.4244277430      7.10e-07  Convergence criterion met
 ---------------------------------------
 SCF time:   CPU 143.86s  wall 144.00s 

************** Final PCM Free Energy Summary **************
 G_electrostatic  =      -0.00587796 hartree =      -3.68847523 kcal/mol
 G_cavitation     =       0.00000000 hartree =       0.00000000 kcal/mol
 G_dispersion     =       0.00000000 hartree =       0.00000000 kcal/mol
 G_repulsion      =       0.00000000 hartree =       0.00000000 kcal/mol
 --------------------------------------------------
 Non-electrostatic Free Energy =       0.00000000 hartree =       0.00000000 kcal/mol
 Total                         =      -0.00587796 hartree =      -3.68847523 kcal/mol
 --------------------------------------------------
 SCF Energy (H0 + V/2)                       =    -629.42442774 
 Solute Internal Energy (H0)                 =    -629.41854978 
 Total Free Energy (H0 + V/2 + non-elec)     =    -629.42442774 hartree
                                             = -394969.78968751 kcal/mol
***********************************************************

 SCF   energy in the final basis set =     -629.4244277430
 Total energy in the final basis set =     -629.4244277430


 --------------------------------------------------------------
  Generalized many-body perturbation theory program
  by Joonho Lee, Fazle Rob, Xintian Feng, Evgeny Epifanovsky

 No regularization used 
 (reg. param. = 0.0000e+00)
  (P|Q)^-1/2 Time:  CPU 0.48 s  wall 0.49 s

 In RI-MP2 calculation: 
 # of frozen core orbitals: 11

 Components of the RIMP2 correlation energy:
        aaaa    correlation energy =        -0.1449990390 a.u.
        abab    correlation energy =        -0.8848380224 a.u.
        bbbb    correlation energy =        -0.1449990390 a.u.
        non-Brillouin singles      =        -0.0000000000 a.u.
        total same-spin energy     =        -0.2899980780 a.u.
        total opposite-spin energy =        -0.8848380224 a.u.

 Total  RIMP2   correlation energy =        -1.1748361005 a.u.
        RIMP2         total energy =      -630.5992638435 a.u.

 RI-MP2 Energy Time:  CPU 11.04 s  wall 11.08 s
 
 --------------------------------------------------------------
 
                    Orbital Energies (a.u.)
 --------------------------------------------------------------
 
 Alpha MOs
 -- Occupied --
-91.9790 -11.2855 -11.2489 -11.2467 -11.2262 -11.2223 -11.2220  -8.9788
 -6.6598  -6.6593  -6.6586  -1.1602  -1.0564  -0.9967  -0.9431  -0.8823
 -0.7443  -0.7182  -0.6496  -0.5870  -0.5752  -0.5669  -0.5531  -0.5471
 -0.5072  -0.4946  -0.4659  -0.4570  -0.3389  -0.2886
 -- Virtual --
  0.1144   0.1440   0.1479   0.1745   0.1889   0.1989   0.2053   0.2168
  0.2241   0.2426   0.2466   0.2569   0.2928   0.3300   0.3440   0.3544
  0.3866   0.3917   0.4004   0.4244   0.4300   0.4628   0.4698   0.4913
  0.4989   0.5137   0.5199   0.5323   0.5562   0.5579   0.5780   0.5949
  0.5980   0.6058   0.6179   0.6203   0.6345   0.6399   0.6436   0.6485
  0.6564   0.6688   0.6916   0.7016   0.7194   0.7403   0.7892   0.7914
  0.8111   0.8395   0.8468   0.8528   0.8852   0.8897   0.9073   0.9394
  0.9464   0.9715   0.9898   1.0268   1.0418   1.0545   1.0591   1.0780
  1.0824   1.0972   1.1042   1.1160   1.1355   1.1646   1.1733   1.2078
  1.2395   1.2527   1.2538   1.2664   1.2735   1.2935   1.3085   1.3287
  1.3774   1.3844   1.3933   1.4113   1.4384   1.4409   1.4531   1.4844
  1.5027   1.5057   1.5234   1.5363   1.5473   1.5585   1.5758   1.5944
  1.6092   1.6348   1.6415   1.6792   1.6924   1.7063   1.7275   1.7451
  1.7809   1.7831   1.8058   1.8469   1.8916   1.9023   1.9303   1.9545
  2.0272   2.0710   2.0859   2.1354   2.1806   2.2047   2.2332   2.2620
  2.2943   2.3044   2.3483   2.4139   2.4546   2.4612   2.4809   2.5275
  2.5600   2.6011   2.6467   2.6697   2.6871   2.7028   2.7240   2.7336
  2.7369   2.7592   2.7777   2.8002   2.8142   2.8440   2.8560   2.8753
  2.9079   2.9286   2.9530   2.9710   3.0159   3.0279   3.0514   3.0696
  3.0810   3.1140   3.1240   3.1348   3.1575   3.1618   3.1807   3.1826
  3.2274   3.2382   3.2496   3.2678   3.2992   3.3094   3.3139   3.3293
  3.3471   3.3522   3.3784   3.3949   3.4014   3.4148   3.4298   3.4366
  3.4516   3.4563   3.4722   3.4948   3.5026   3.5106   3.5234   3.5410
  3.5824   3.5977   3.6173   3.6263   3.6278   3.6480   3.6546   3.6842
  3.6868   3.7121   3.7261   3.7382   3.7509   3.7725   3.7929   3.8046
  3.8086   3.8352   3.8678   3.8969   3.9165   3.9360   3.9550   3.9653
  3.9783   3.9933   4.0218   4.0337   4.0410   4.0595   4.0733   4.1077
  4.1241   4.1377   4.1814   4.2034   4.2148   4.2365   4.2501   4.2735
  4.2844   4.3029   4.3243   4.3320   4.3508   4.3563   4.3971   4.4008
  4.4113   4.4229   4.4443   4.4522   4.4701   4.5199   4.5544   4.5683
  4.6018   4.6169   4.6422   4.6659   4.7054   4.7261   4.7601   4.7783
  4.8244   4.8365   4.8755   4.8803   4.9140   4.9504   5.0749   5.1039
  5.1144   5.1436   5.1797   5.2051   5.2110   5.2644   5.2854   5.3325
  5.3774   5.4112   5.4184   5.4446   5.4811   5.5308   5.5542   5.5684
  5.5835   5.6096   5.6225   5.6549   5.7011   5.8090   5.8319   5.8685
  5.9297   6.0235   6.1234   6.1648   6.2275   6.2563   6.3090   6.3954
  6.4620   6.6318   9.2436  11.4150  12.9528  13.8443  14.1749  14.6448
 --------------------------------------------------------------
 
          Ground-State Mulliken Net Atomic Charges

     Atom                 Charge (a.u.)
  ----------------------------------------
      1 C                     0.063110
      2 C                    -0.306973
      3 C                     0.049978
      4 H                     0.177171
      5 C                    -0.280466
      6 S                     0.000026
      7 C                    -0.274151
      8 H                     0.101382
      9 H                     0.107317
     10 H                     0.107228
     11 C                    -0.383273
     12 H                     0.141505
     13 H                     0.165548
     14 H                     0.138134
     15 H                     0.193464
  ----------------------------------------
  Sum of atomic charges =     0.000000

 -----------------------------------------------------------------
                    Cartesian Multipole Moments
 -----------------------------------------------------------------
    Charge (ESU x 10^10)
                -0.0000
    Dipole Moment (Debye)
         X      -0.7278      Y      -0.7362      Z       1.2556
       Tot       1.6273
    Quadrupole Moments (Debye-Ang)
        XX     -54.3975     XY       1.5514     YY     -41.6491
        XZ      -0.1494     YZ       0.4544     ZZ     -48.6005
    Octopole Moments (Debye-Ang^2)
       XXX       0.5259    XXY     -31.3589    XYY      -2.9293
       YYY     -83.1554    XXZ      -1.8177    XYZ       0.5112
       YYZ      -3.9175    XZZ       0.3065    YZZ     -26.1802
       ZZZ       0.8208
    Hexadecapole Moments (Debye-Ang^3)
      XXXX     -77.6877   XXXY      -3.2518   XXYY    -163.8695
      XYYY       4.2273   YYYY    -808.6227   XXXZ       0.2560
      XXYZ     -30.5311   XYYZ      -1.5618   YYYZ    -106.5518
      XXZZ    -102.3262   XYZZ      -1.0587   YYZZ    -210.1773
      XZZZ      -0.2470   YZZZ    -102.1176   ZZZZ    -484.2374
 -----------------------------------------------------------------
 Total job time:  156.75s(wall), 155.26s(cpu) 
 Sun Jul 10 10:33:39 2022

        *************************************************************
        *                                                           *
        *  Thank you very much for using Q-Chem.  Have a nice day.  *
        *                                                           *
        *************************************************************


remove work dirs ./qchem876409.0 -- ./qchem876409.-1
rm -rf ./qchem876409
