You are running Q-Chem version: 5.4.0

#
# job setting
#
local host:  exp-3-27
current dir: /expanse/lustre/scratch/theleonzhang/temp_project/Hydrogenated_Impropers_Test
input file:  Methylthiophene_Phi_20_Theta_270_Methylthiophene_Hydrogenated_Improper.qcin
output file: 
nprocs     : 0
nthreads   : 1
#
# qchem installation setting
#
QC:          /cm/shared/apps/spack/cpu/opt/spack/linux-centos8-zen2/gcc-10.2.0/qchem-5.4-akfmr7b3t57bfs6qan3padb2wnb2i7cl
QCAUX:       /cm/shared/apps/spack/cpu/opt/spack/linux-centos8-zen2/gcc-10.2.0/qchem-5.4-akfmr7b3t57bfs6qan3padb2wnb2i7cl/qcaux
QCPROG:      /cm/shared/apps/spack/cpu/opt/spack/linux-centos8-zen2/gcc-10.2.0/qchem-5.4-akfmr7b3t57bfs6qan3padb2wnb2i7cl/exe/qcprog.exe_s
QCPROG_S:    /cm/shared/apps/spack/cpu/opt/spack/linux-centos8-zen2/gcc-10.2.0/qchem-5.4-akfmr7b3t57bfs6qan3padb2wnb2i7cl/exe/qcprog.exe_s
PARALLEL:    -DSERIAL
QCMPI:       mpich
#
# qchem directory setting
#
qcrun:       qchem2563341
QCSCRATCH:   .
QCLOCALSCR:  
QCTMPDIR:    .
QCFILEPREF:  ./qchem2563341
QCSAVEDIR:   
workdirs:    ./qchem2563341
workdir0:    ./qchem2563341
partmpdirs =  
#
# parallel setting
#
QCRSH:           ssh
QCMPI:           mpich
QCMPIRUN:        /cm/shared/apps/spack/cpu/opt/spack/linux-centos8-zen2/gcc-10.2.0/qchem-5.4-akfmr7b3t57bfs6qan3padb2wnb2i7cl/bin/mpi/mpirun_qchem
QCMACHINEFILE:   ./qchem2563341/hostfile

#
# env setting
#
exported envs:   QC QCAUX QCSCRATCH QCRUNNAME QCFILEPREF QCPROG QCPROG_S GUIFILE

Running Job 1 of 1 Methylthiophene_Phi_20_Theta_270_Methylthiophene_Hydrogenated_Improper.qcin
qchem Methylthiophene_Phi_20_Theta_270_Methylthiophene_Hydrogenated_Improper.qcin_2563341.0 ./qchem2563341/ 0
/cm/shared/apps/spack/cpu/opt/spack/linux-centos8-zen2/gcc-10.2.0/qchem-5.4-akfmr7b3t57bfs6qan3padb2wnb2i7cl/exe/qcprog.exe_s Methylthiophene_Phi_20_Theta_270_Methylthiophene_Hydrogenated_Improper.qcin_2563341.0 ./qchem2563341/
                  Welcome to Q-Chem
     A Quantum Leap Into The Future Of Chemistry


 Q-Chem 5.4, Q-Chem, Inc., Pleasanton, CA (2021)

 License issued to: University of California, San Diego (site)

 E. Epifanovsky,  A. T. B. Gilbert,  Xintian Feng,  Joonho Lee,  Yuezhi Mao,  
 N. Mardirossian,  P. Pokhilko,  A. White,  M. Wormit,  M. P. Coons,  
 A. L. Dempwolff,  Zhengting Gan,  D. Hait,  P. R. Horn,  L. D. Jacobson,  
 I. Kaliman,  J. Kussmann,  A. W. Lange,  Ka Un Lao,  D. S. Levine,  Jie Liu,  
 S. C. McKenzie,  A. F. Morrison,  K. Nanda,  F. Plasser,  D. R. Rehn,  
 M. L. Vidal,  Zhi-Qiang You,  Ying Zhu,  B. Alam,  B. Albrecht,  
 A. Aldossary,  E. Alguire,  J. H. Andersen,  D. Barton,  K. Begam,  A. Behn,  
 Y. A. Bernard,  E. J. Berquist,  H. Burton,  A. Carreras,  K. Carter-Fenk,  
 R. Chakraborty,  A. D. Chien,  K. D. Closser,  V. Cofer-Shabica,  
 S. Dasgupta,  Jia Deng,  M. de Wergifosse,  M. Diedenhofen,  Hainam Do,  
 S. Ehlert,  Po-Tung Fang,  S. Fatehi,  Qingguo Feng,  J. Gayvert,  
 Qinghui Ge,  G. Gidofalvi,  M. Goldey,  J. Gomes,  C. Gonzalez-Espinoza,  
 S. Gulania,  A. Gunina,  M. W. D. Hanson-Heine,  P. H. P. Harbach,  
 A. W. Hauser,  M. F. Herbst,  M. Hernandez Vera,  M. Hodecker,  
 Z. C. Holden,  S. Houck,  Xunkun Huang,  Kerwin Hui,  B. C. Huynh,  
 M. Ivanov,  Hyunjun Ji,  Hanjie Jiang,  B. Kaduk,  S. Kaehler,  
 K. Khistyaev,  Jaehoon Kim,  P. Klunzinger,  Z. Koczor-Benda,  
 Joong Hoon Koh,  D. Kosenkov,  L. Koulias,  T. Kowalczyk,  C. M. Krauter,  
 K. Kue,  A. Kunitsa,  T. Kus,  A. Landau,  K. V. Lawler,  D. Lefrancois,  
 S. Lehtola,  Rain Li,  Yi-Pei Li,  Jiashu Liang,  M. Liebenthal,  
 Hung-Hsuan Lin,  You-Sheng Lin,  Fenglai Liu,  Kuan-Yu Liu,  
 M. Loipersberger,  A. Luenser,  A. Manjanath,  P. Manohar,  E. Mansoor,  
 S. F. Manzer,  Shan-Ping Mao,  A. V. Marenich,  T. Markovich,  S. Mason,  
 S. A. Maurer,  P. F. McLaughlin,  M. F. S. J. Menger,  J.-M. Mewes,  
 S. A. Mewes,  P. Morgante,  J. W. Mullinax,  T. S. Nguyen-Beck,  
 K. J. Oosterbaan,  G. Paran,  Alexander C. Paul,  Suranjan K. Paul,  
 F. Pavosevic,  Zheng Pei,  S. Prager,  E. I. Proynov,  E. Ramos,  B. Rana,  
 A. E. Rask,  A. Rettig,  R. M. Richard,  F. Rob,  E. Rossomme,  T. Scheele,  
 M. Scheurer,  M. Schneider,  N. Sergueev,  S. M. Sharada,  W. Skomorowski,  
 D. W. Small,  C. J. Stein,  Yu-Chuan Su,  E. J. Sundstrom,  Zhen Tao,  
 J. Thirman,  T. Tsuchimochi,  N. M. Tubman,  S. P. Veccham,  O. Vydrov,  
 J. Wenzel,  J. Witte,  A. Yamada,  Kun Yao,  S. Yeganeh,  S. R. Yost,  
 A. Zech,  Igor Ying Zhang,  Xing Zhang,  Yu Zhang,  D. Zuev,  
 A. Aspuru-Guzik,  A. T. Bell,  N. A. Besley,  K. B. Bravaya,  B. R. Brooks,  
 D. Casanova,  Jeng-Da Chai,  S. Coriani,  C. J. Cramer,  
 A. E. DePrince, III,  R. A. DiStasio Jr.,  A. Dreuw,  B. D. Dunietz,  
 T. R. Furlani,  W. A. Goddard III,  S. Grimme,  S. Hammes-Schiffer,  
 T. Head-Gordon,  W. J. Hehre,  Chao-Ping Hsu,  T.-C. Jagau,  Yousung Jung,  
 A. Klamt,  Jing Kong,  D. S. Lambrecht,  WanZhen Liang,  N. J. Mayhall,  
 C. W. McCurdy,  J. B. Neaton,  C. Ochsenfeld,  J. A. Parkhill,  R. Peverati,  
 V. A. Rassolov,  Yihan Shao,  L. V. Slipchenko,  T. Stauch,  R. P. Steele,  
 J. E. Subotnik,  A. J. W. Thom,  A. Tkatchenko,  D. G. Truhlar,  
 T. Van Voorhis,  T. A. Wesolowski,  K. B. Whaley,  H. L. Woodcock III,  
 P. M. Zimmerman,  S. Faraji,  P. M. W. Gill,  M. Head-Gordon,  
 J. M. Herbert,  A. I. Krylov

 Contributors to earlier versions of Q-Chem not listed above: 
 R. D. Adamson,  B. Austin,  R. Baer,  J. Baker,  G. J. O. Beran,  
 K. Brandhorst,  S. T. Brown,  E. F. C. Byrd,  A. K. Chakraborty,  
 G. K. L. Chan,  Chun-Min Chang,  Yunqing Chen,  C.-L. Cheng,  
 Siu Hung Chien,  D. M. Chipman,  D. L. Crittenden,  H. Dachsel,  
 R. J. Doerksen,  A. D. Dutoi,  R. G. Edgar,  J. Fosso-Tande,  
 L. Fusti-Molnar,  D. Ghosh,  A. Ghysels,  A. Golubeva-Zadorozhnaya,  
 J. Gonthier,  M. S. Gordon,  S. R. Gwaltney,  G. Hawkins,  J. E. Herr,  
 A. Heyden,  S. Hirata,  E. G. Hohenstein,  G. Kedziora,  F. J. Keil,  
 C. Kelley,  Jihan Kim,  R. A. King,  R. Z. Khaliullin,  P. P. Korambath,  
 W. Kurlancheek,  A. Laurent,  A. M. Lee,  M. S. Lee,  S. V. Levchenko,  
 Ching Yeh Lin,  D. Liotard,  E. Livshits,  R. C. Lochan,  I. Lotan,  
 L. A. Martinez-Martinez,  P. E. Maslen,  N. Nair,  D. P. O'Neill,  
 D. Neuhauser,  E. Neuscamman,  C. M. Oana,  R. Olivares-Amaya,  R. Olson,  
 T. M. Perrine,  B. Peters,  P. A. Pieniazek,  A. Prociuk,  Y. M. Rhee,  
 J. Ritchie,  M. A. Rohrdanz,  E. Rosta,  N. J. Russ,  H. F. Schaefer III,  
 M. W. Schmidt,  N. E. Schultz,  S. Sharma,  N. Shenvi,  C. D. Sherrill,  
 A. C. Simmonett,  A. Sodt,  T. Stein,  D. Stuck,  K. S. Thanthiriwatte,  
 V. Vanovschi,  L. Vogt,  Tao Wang,  A. Warshel,  M. A. Watson,  
 C. F. Williams,  Q. Wu,  X. Xu,  Jun Yang,  W. Zhang,  Yan Zhao

 Please cite Q-Chem as follows:
 Y. Shao et al., Mol. Phys. 113, 184-215 (2015)
 DOI: 10.1080/00268976.2014.952696

 Q-Chem 5.4.0 for Intel X86 EM64T Linux

 Parts of Q-Chem use Armadillo 9.800.1 (Horizon Scraper).
 http://arma.sourceforge.net/

 Q-Chem begins on Sun Jul 10 09:32:12 2022  

 Host: 
0

     Scratch files written to ./qchem2563341//
 May1621 |scratch|qcdevops|jenkins|workspace|build_RNUM    
 Processing $rem in /cm/shared/apps/spack/cpu/opt/spack/linux-centos8-zen2/gcc-10.2.0/qchem-5.4-akfmr7b3t57bfs6qan3padb2wnb2i7cl/config/preferences:
 Processing $rem in /home/theleonzhang/.qchemrc:
 Symmetry turned off for PCM/SM12/SMD calculation
 Core orbitals will be frozen

 Checking the input file for inconsistencies... 	...done.

--------------------------------------------------------------
User input:
--------------------------------------------------------------
$molecule
0 1
C	-0.232586	-0.535397	0.010180
C	0.062814	0.276103	1.109580
C	0.536114	1.576503	0.786880
H	-0.063286	-0.070397	2.146280
C	0.611614	1.783903	-0.602320
S	0.089714	0.350203	-1.476620
C	0.908214	2.598703	1.824780
H	0.762614	2.198703	2.846880
H	0.293414	3.518703	1.736380
H	1.970614	2.908303	1.736380
C	-0.232586	-1.976097	0.010180
H	-0.232686	-1.975797	1.090180
H	-1.051786	-2.679897	0.010080
H	0.714514	-2.494997	0.010180
H	0.936314	2.675903	-1.151420
$end

$rem
JOBTYPE		SP
EXCHANGE	HF
CORRELATION	pRIMP2
BASIS		cc-pvtz
METHOD		rimp2
AUX_BASIS	rimp2-cc-pvtz
SOLVENT_METHOD	PCM
PURECART	11111
SYMMETRY	false
MEM_TOTAL	110000
SCF_CONVERGENCE = 6
THRESH=10
$end



$solvent
dielectric 4.90
$end
--------------------------------------------------------------
 ----------------------------------------------------------------
             Standard Nuclear Orientation (Angstroms)
    I     Atom           X                Y                Z
 ----------------------------------------------------------------
    1      C      -0.2325860000    -0.5353970000     0.0101800000
    2      C       0.0628140000     0.2761030000     1.1095800000
    3      C       0.5361140000     1.5765030000     0.7868800000
    4      H      -0.0632860000    -0.0703970000     2.1462800000
    5      C       0.6116140000     1.7839030000    -0.6023200000
    6      S       0.0897140000     0.3502030000    -1.4766200000
    7      C       0.9082140000     2.5987030000     1.8247800000
    8      H       0.7626140000     2.1987030000     2.8468800000
    9      H       0.2934140000     3.5187030000     1.7363800000
   10      H       1.9706140000     2.9083030000     1.7363800000
   11      C      -0.2325860000    -1.9760970000     0.0101800000
   12      H      -0.2326860000    -1.9757970000     1.0901800000
   13      H      -1.0517860000    -2.6798970000     0.0100800000
   14      H       0.7145140000    -2.4949970000     0.0101800000
   15      H       0.9363140000     2.6759030000    -1.1514200000
 ----------------------------------------------------------------
 Nuclear Repulsion Energy =         344.99760462 hartrees
 There are       30 alpha and       30 beta electrons

 Q-Chem warning in module forms1/BasisType.C, line 2236:

 You are not using the predefined 5D/6D in this basis set.

 Requested basis set is cc-pVTZ
 There are 120 shells and 326 basis functions

 Total QAlloc Memory Limit 110000 MB
 Mega-Array Size       188 MB
 MEM_STATIC part       192 MB
 Discretize the solute cavity surface with Lebedev spheres
	Using 110 Lebedev grid points for each H atom
	Using 194 Lebedev grid points for other atoms
	Atomic van der Waals radii will be scaled by 1.20
 Remove points where switching function is < 1.0e-08
 Keep 1060 surface tesserae and discard 1178 interior tesserae
 Molecular Surface Area = 157.936 Angst**2

                       Distance Matrix (Angstroms)
             C (  1)   C (  2)   C (  3)   H (  4)   C (  5)   S (  6)
   C (  2)  1.398025
   C (  3)  2.377874  1.420981
   H (  4)  2.192672  1.100323  2.218001
   C (  5)  2.543026  2.346326  1.406624  3.383596
   S (  6)  1.760324  2.587401  2.612760  3.650441  1.758487
   C (  7)  3.796944  2.573069  1.503525  2.858543  2.577341  4.077369
   H (  8)  4.063569  2.684087  2.163801  2.514312  3.477332  4.749989
   H (  9)  4.437586  3.310666  2.175453  3.629999  2.929215  4.517107
   H ( 10)  4.437671  3.310749  2.175553  3.630072  2.929279  4.517193
   C ( 11)  1.440700  2.523558  3.716871  2.867626  3.901978  2.779590
   H ( 12)  1.800320  2.271288  3.647174  2.185084  4.208651  3.478891
   H ( 13)  2.295641  3.345022  4.608881  3.514253  4.802858  3.562977
   H ( 14)  2.176472  3.051621  4.148759  3.323640  4.323740  3.270491
   H ( 15)  3.609444  3.410889  2.264033  4.406381  1.096633  2.496271
             C (  7)   H (  8)   H (  9)   H ( 10)   C ( 11)   H ( 12)
   H (  8)  1.107198
   H (  9)  1.110042  1.787669
   H ( 10)  1.110117  1.787738  1.784822
   C ( 11)  5.052029  5.144535  5.783534  5.629496
   H ( 12)  4.771513  4.637140  5.557327  5.396901  1.080000
   H ( 13)  5.915941  5.927919  6.573608  6.583540  1.080011  1.527514
   H ( 14)  5.410737  5.484524  6.270700  5.809751  1.079933  1.527467
   H ( 15)  2.977334  4.030421  3.076202  3.076227  4.935255  5.294303
             H ( 13)   H ( 14)
   H ( 14)  1.775951
   H ( 15)  5.829770  5.304405
 
 Requested basis set is rimp2-cc-pVTZ
 There are 250 shells and 848 basis functions
 A cutoff of  1.0D-10 yielded   6204 shell pairs
 There are     45500 function pairs (     58522 Cartesian)
 Smallest overlap matrix eigenvalue = 1.17E-04

 Scale SEOQF with 1.000000e-01/1.000000e-01/1.000000e-01

 Standard Electronic Orientation quadrupole field applied
 Nucleus-field energy     =     0.0000000019 hartrees
 Guess from superposition of atomic densities
 Warning:  Energy on first SCF cycle will be non-variational
 SAD guess density has 60.000000 electrons

 -----------------------------------------------------------------------
  General SCF calculation program by
  Eric Jon Sundstrom, Paul Horn, Yuezhi Mao, Dmitri Zuev, Alec White,
  David Stuck, Shaama M.S., Shane Yost, Joonho Lee, David Small,
  Daniel Levine, Susi Lehtola, Hugh Burton, Evgeny Epifanovsky,
  Bang C. Huynh
 -----------------------------------------------------------------------
 Hartree-Fock
 A restricted SCF calculation will be
 performed using DIIS
 SCF converges when DIIS error is below 1.0e-06
 ---------------------------------------
  Cycle       Energy         DIIS error
 ---------------------------------------
    1    -632.1184233623      2.92e-02  
    2    -629.3394467425      1.90e-03  
    3    -629.4088221954      6.25e-04  
    4    -629.4157145311      3.16e-04  
    5    -629.4174540187      6.21e-05  
    6    -629.4175825509      2.44e-05  
    7    -629.4176147027      1.15e-05  
    8    -629.4176241209      4.75e-06  
    9    -629.4176255952      1.77e-06  
   10    -629.4176257593      4.89e-07  Convergence criterion met
 ---------------------------------------
 SCF time:   CPU 144.60s  wall 145.00s 

************** Final PCM Free Energy Summary **************
 G_electrostatic  =      -0.00539904 hartree =      -3.38794969 kcal/mol
 G_cavitation     =       0.00000000 hartree =       0.00000000 kcal/mol
 G_dispersion     =       0.00000000 hartree =       0.00000000 kcal/mol
 G_repulsion      =       0.00000000 hartree =       0.00000000 kcal/mol
 --------------------------------------------------
 Non-electrostatic Free Energy =       0.00000000 hartree =       0.00000000 kcal/mol
 Total                         =      -0.00539904 hartree =      -3.38794969 kcal/mol
 --------------------------------------------------
 SCF Energy (H0 + V/2)                       =    -629.41762576 
 Solute Internal Energy (H0)                 =    -629.41222672 
 Total Free Energy (H0 + V/2 + non-elec)     =    -629.41762576 hartree
                                             = -394965.52137830 kcal/mol
***********************************************************

 SCF   energy in the final basis set =     -629.4176257593
 Total energy in the final basis set =     -629.4176257593


 --------------------------------------------------------------
  Generalized many-body perturbation theory program
  by Joonho Lee, Fazle Rob, Xintian Feng, Evgeny Epifanovsky

 No regularization used 
 (reg. param. = 0.0000e+00)
  (P|Q)^-1/2 Time:  CPU 0.48 s  wall 0.49 s

 In RI-MP2 calculation: 
 # of frozen core orbitals: 11

 Components of the RIMP2 correlation energy:
        aaaa    correlation energy =        -0.1459173614 a.u.
        abab    correlation energy =        -0.8877108712 a.u.
        bbbb    correlation energy =        -0.1459173614 a.u.
        non-Brillouin singles      =        -0.0000000000 a.u.
        total same-spin energy     =        -0.2918347228 a.u.
        total opposite-spin energy =        -0.8877108712 a.u.

 Total  RIMP2   correlation energy =        -1.1795455939 a.u.
        RIMP2         total energy =      -630.5971713533 a.u.

 RI-MP2 Energy Time:  CPU 11.15 s  wall 11.18 s
 
 --------------------------------------------------------------
 
                    Orbital Energies (a.u.)
 --------------------------------------------------------------
 
 Alpha MOs
 -- Occupied --
-91.9744 -11.2747 -11.2596 -11.2472 -11.2360 -11.2276 -11.2153  -8.9746
 -6.6556  -6.6550  -6.6545  -1.1623  -1.0540  -0.9997  -0.9389  -0.8843
 -0.7426  -0.7252  -0.6476  -0.5920  -0.5784  -0.5662  -0.5591  -0.5419
 -0.5113  -0.4826  -0.4678  -0.4360  -0.3376  -0.3045
 -- Virtual --
  0.0977   0.1445   0.1526   0.1772   0.1856   0.1924   0.1977   0.2295
  0.2340   0.2433   0.2505   0.2695   0.3092   0.3137   0.3442   0.3602
  0.3744   0.3939   0.4113   0.4139   0.4404   0.4614   0.4693   0.4759
  0.4875   0.4997   0.5172   0.5227   0.5389   0.5427   0.5722   0.5878
  0.5985   0.6014   0.6192   0.6319   0.6403   0.6413   0.6437   0.6474
  0.6617   0.6783   0.6809   0.6851   0.7491   0.7556   0.7642   0.7693
  0.8060   0.8128   0.8415   0.8604   0.8631   0.8845   0.9095   0.9222
  0.9503   0.9776   1.0036   1.0095   1.0290   1.0405   1.0642   1.0744
  1.0791   1.0881   1.1267   1.1434   1.1678   1.1741   1.1896   1.2053
  1.2187   1.2261   1.2517   1.2572   1.2813   1.2923   1.3180   1.3264
  1.3411   1.3586   1.3822   1.4036   1.4266   1.4446   1.4515   1.4810
  1.4952   1.5094   1.5284   1.5340   1.5518   1.5623   1.5750   1.5803
  1.5886   1.6360   1.6490   1.6692   1.6849   1.7079   1.7135   1.7537
  1.7604   1.7810   1.8031   1.8182   1.8962   1.9131   1.9318   1.9606
  1.9919   2.0384   2.1016   2.1176   2.1675   2.1883   2.2070   2.2180
  2.2581   2.2833   2.3496   2.4176   2.4641   2.4984   2.5335   2.5605
  2.5695   2.6000   2.6402   2.6507   2.6733   2.6796   2.7230   2.7437
  2.7473   2.7547   2.7828   2.7963   2.8378   2.8451   2.8681   2.8749
  2.9064   2.9310   2.9385   2.9666   2.9880   3.0132   3.0417   3.0615
  3.1007   3.1077   3.1162   3.1408   3.1560   3.1584   3.1941   3.1998
  3.2089   3.2471   3.2561   3.2633   3.2887   3.3023   3.3124   3.3344
  3.3463   3.3584   3.3776   3.3948   3.4003   3.4100   3.4247   3.4404
  3.4491   3.4652   3.4862   3.5004   3.5021   3.5235   3.5434   3.5535
  3.5910   3.5975   3.6085   3.6191   3.6376   3.6646   3.6698   3.6871
  3.7004   3.7108   3.7250   3.7395   3.7488   3.7756   3.7847   3.7920
  3.7986   3.8268   3.8574   3.8671   3.8952   3.9093   3.9355   3.9556
  3.9682   3.9860   4.0103   4.0289   4.0464   4.0694   4.1012   4.1129
  4.1357   4.1460   4.1583   4.1630   4.1734   4.2220   4.2253   4.2355
  4.2689   4.2801   4.3012   4.3362   4.3482   4.3670   4.4012   4.4021
  4.4279   4.4345   4.4550   4.4677   4.4985   4.5218   4.5521   4.5707
  4.6109   4.6364   4.6639   4.6980   4.7101   4.7525   4.7697   4.7828
  4.8131   4.8290   4.8634   4.8869   4.9297   4.9439   5.0724   5.0963
  5.1193   5.1445   5.1854   5.1979   5.2394   5.2612   5.2927   5.3040
  5.3627   5.3988   5.4078   5.4462   5.4762   5.4905   5.5470   5.5737
  5.5917   5.6196   5.6325   5.6962   5.7167   5.8242   5.8472   5.8714
  5.9207   5.9695   6.0319   6.1334   6.2268   6.2437   6.2862   6.3468
  6.4132   6.4778   9.2030  11.4568  12.9033  13.8016  14.1886  14.3906
 --------------------------------------------------------------
 
          Ground-State Mulliken Net Atomic Charges

     Atom                 Charge (a.u.)
  ----------------------------------------
      1 C                     0.043461
      2 C                    -0.270301
      3 C                     0.038318
      4 H                     0.176888
      5 C                    -0.247990
      6 S                    -0.006440
      7 C                    -0.271524
      8 H                     0.101196
      9 H                     0.107064
     10 H                     0.107080
     11 C                    -0.365180
     12 H                     0.118621
     13 H                     0.145159
     14 H                     0.130409
     15 H                     0.193240
  ----------------------------------------
  Sum of atomic charges =     0.000000

 -----------------------------------------------------------------
                    Cartesian Multipole Moments
 -----------------------------------------------------------------
    Charge (ESU x 10^10)
                -0.0000
    Dipole Moment (Debye)
         X       0.5727      Y      -0.0052      Z       2.1696
       Tot       2.2439
    Quadrupole Moments (Debye-Ang)
        XX     -52.7400     XY       2.9435     YY     -43.3763
        XZ      -0.0851     YZ      -1.0981     ZZ     -48.9006
    Octopole Moments (Debye-Ang^2)
       XXX     -36.9215    XXY     -28.1496    XYY      -6.5898
       YYY     -74.3441    XXZ      -2.4663    XYZ      -0.7444
       YYZ      -1.9239    XZZ     -10.4710    YZZ     -21.8110
       ZZZ       0.9607
    Hexadecapole Moments (Debye-Ang^3)
      XXXX    -145.4810   XXXY    -102.3652   XXYY    -149.5878
      XYYY     -85.8269   YYYY    -752.9706   XXXZ     -30.9907
      XXYZ     -29.0359   XYYZ     -15.0879   YYYZ    -100.0349
      XXZZ    -110.8183   XYZZ     -28.4089   YYZZ    -207.8499
      XZZZ     -34.3188   YZZZ     -90.5904   ZZZZ    -482.3201
 -----------------------------------------------------------------
 Total job time:  158.72s(wall), 156.16s(cpu) 
 Sun Jul 10 09:34:51 2022

        *************************************************************
        *                                                           *
        *  Thank you very much for using Q-Chem.  Have a nice day.  *
        *                                                           *
        *************************************************************


remove work dirs ./qchem2563341.0 -- ./qchem2563341.-1
rm -rf ./qchem2563341
You are running Q-Chem version: 5.4.0

#
# job setting
#
local host:  exp-3-46
current dir: /expanse/lustre/scratch/theleonzhang/temp_project/Hydrogenated_Impropers_Test
input file:  Methylthiophene_Phi_20_Theta_270_Methylthiophene_Hydrogenated_Improper.qcin
output file: 
nprocs     : 0
nthreads   : 1
#
# qchem installation setting
#
QC:          /cm/shared/apps/spack/cpu/opt/spack/linux-centos8-zen2/gcc-10.2.0/qchem-5.4-akfmr7b3t57bfs6qan3padb2wnb2i7cl
QCAUX:       /cm/shared/apps/spack/cpu/opt/spack/linux-centos8-zen2/gcc-10.2.0/qchem-5.4-akfmr7b3t57bfs6qan3padb2wnb2i7cl/qcaux
QCPROG:      /cm/shared/apps/spack/cpu/opt/spack/linux-centos8-zen2/gcc-10.2.0/qchem-5.4-akfmr7b3t57bfs6qan3padb2wnb2i7cl/exe/qcprog.exe_s
QCPROG_S:    /cm/shared/apps/spack/cpu/opt/spack/linux-centos8-zen2/gcc-10.2.0/qchem-5.4-akfmr7b3t57bfs6qan3padb2wnb2i7cl/exe/qcprog.exe_s
PARALLEL:    -DSERIAL
QCMPI:       mpich
#
# qchem directory setting
#
qcrun:       qchem2934080
QCSCRATCH:   .
QCLOCALSCR:  
QCTMPDIR:    .
QCFILEPREF:  ./qchem2934080
QCSAVEDIR:   
workdirs:    ./qchem2934080
workdir0:    ./qchem2934080
partmpdirs =  
#
# parallel setting
#
QCRSH:           ssh
QCMPI:           mpich
QCMPIRUN:        /cm/shared/apps/spack/cpu/opt/spack/linux-centos8-zen2/gcc-10.2.0/qchem-5.4-akfmr7b3t57bfs6qan3padb2wnb2i7cl/bin/mpi/mpirun_qchem
QCMACHINEFILE:   ./qchem2934080/hostfile

#
# env setting
#
exported envs:   QC QCAUX QCSCRATCH QCRUNNAME QCFILEPREF QCPROG QCPROG_S GUIFILE

Running Job 1 of 1 Methylthiophene_Phi_20_Theta_270_Methylthiophene_Hydrogenated_Improper.qcin
qchem Methylthiophene_Phi_20_Theta_270_Methylthiophene_Hydrogenated_Improper.qcin_2934080.0 ./qchem2934080/ 0
/cm/shared/apps/spack/cpu/opt/spack/linux-centos8-zen2/gcc-10.2.0/qchem-5.4-akfmr7b3t57bfs6qan3padb2wnb2i7cl/exe/qcprog.exe_s Methylthiophene_Phi_20_Theta_270_Methylthiophene_Hydrogenated_Improper.qcin_2934080.0 ./qchem2934080/
                  Welcome to Q-Chem
     A Quantum Leap Into The Future Of Chemistry


 Q-Chem 5.4, Q-Chem, Inc., Pleasanton, CA (2021)

 License issued to: University of California, San Diego (site)

 E. Epifanovsky,  A. T. B. Gilbert,  Xintian Feng,  Joonho Lee,  Yuezhi Mao,  
 N. Mardirossian,  P. Pokhilko,  A. White,  M. Wormit,  M. P. Coons,  
 A. L. Dempwolff,  Zhengting Gan,  D. Hait,  P. R. Horn,  L. D. Jacobson,  
 I. Kaliman,  J. Kussmann,  A. W. Lange,  Ka Un Lao,  D. S. Levine,  Jie Liu,  
 S. C. McKenzie,  A. F. Morrison,  K. Nanda,  F. Plasser,  D. R. Rehn,  
 M. L. Vidal,  Zhi-Qiang You,  Ying Zhu,  B. Alam,  B. Albrecht,  
 A. Aldossary,  E. Alguire,  J. H. Andersen,  D. Barton,  K. Begam,  A. Behn,  
 Y. A. Bernard,  E. J. Berquist,  H. Burton,  A. Carreras,  K. Carter-Fenk,  
 R. Chakraborty,  A. D. Chien,  K. D. Closser,  V. Cofer-Shabica,  
 S. Dasgupta,  Jia Deng,  M. de Wergifosse,  M. Diedenhofen,  Hainam Do,  
 S. Ehlert,  Po-Tung Fang,  S. Fatehi,  Qingguo Feng,  J. Gayvert,  
 Qinghui Ge,  G. Gidofalvi,  M. Goldey,  J. Gomes,  C. Gonzalez-Espinoza,  
 S. Gulania,  A. Gunina,  M. W. D. Hanson-Heine,  P. H. P. Harbach,  
 A. W. Hauser,  M. F. Herbst,  M. Hernandez Vera,  M. Hodecker,  
 Z. C. Holden,  S. Houck,  Xunkun Huang,  Kerwin Hui,  B. C. Huynh,  
 M. Ivanov,  Hyunjun Ji,  Hanjie Jiang,  B. Kaduk,  S. Kaehler,  
 K. Khistyaev,  Jaehoon Kim,  P. Klunzinger,  Z. Koczor-Benda,  
 Joong Hoon Koh,  D. Kosenkov,  L. Koulias,  T. Kowalczyk,  C. M. Krauter,  
 K. Kue,  A. Kunitsa,  T. Kus,  A. Landau,  K. V. Lawler,  D. Lefrancois,  
 S. Lehtola,  Rain Li,  Yi-Pei Li,  Jiashu Liang,  M. Liebenthal,  
 Hung-Hsuan Lin,  You-Sheng Lin,  Fenglai Liu,  Kuan-Yu Liu,  
 M. Loipersberger,  A. Luenser,  A. Manjanath,  P. Manohar,  E. Mansoor,  
 S. F. Manzer,  Shan-Ping Mao,  A. V. Marenich,  T. Markovich,  S. Mason,  
 S. A. Maurer,  P. F. McLaughlin,  M. F. S. J. Menger,  J.-M. Mewes,  
 S. A. Mewes,  P. Morgante,  J. W. Mullinax,  T. S. Nguyen-Beck,  
 K. J. Oosterbaan,  G. Paran,  Alexander C. Paul,  Suranjan K. Paul,  
 F. Pavosevic,  Zheng Pei,  S. Prager,  E. I. Proynov,  E. Ramos,  B. Rana,  
 A. E. Rask,  A. Rettig,  R. M. Richard,  F. Rob,  E. Rossomme,  T. Scheele,  
 M. Scheurer,  M. Schneider,  N. Sergueev,  S. M. Sharada,  W. Skomorowski,  
 D. W. Small,  C. J. Stein,  Yu-Chuan Su,  E. J. Sundstrom,  Zhen Tao,  
 J. Thirman,  T. Tsuchimochi,  N. M. Tubman,  S. P. Veccham,  O. Vydrov,  
 J. Wenzel,  J. Witte,  A. Yamada,  Kun Yao,  S. Yeganeh,  S. R. Yost,  
 A. Zech,  Igor Ying Zhang,  Xing Zhang,  Yu Zhang,  D. Zuev,  
 A. Aspuru-Guzik,  A. T. Bell,  N. A. Besley,  K. B. Bravaya,  B. R. Brooks,  
 D. Casanova,  Jeng-Da Chai,  S. Coriani,  C. J. Cramer,  
 A. E. DePrince, III,  R. A. DiStasio Jr.,  A. Dreuw,  B. D. Dunietz,  
 T. R. Furlani,  W. A. Goddard III,  S. Grimme,  S. Hammes-Schiffer,  
 T. Head-Gordon,  W. J. Hehre,  Chao-Ping Hsu,  T.-C. Jagau,  Yousung Jung,  
 A. Klamt,  Jing Kong,  D. S. Lambrecht,  WanZhen Liang,  N. J. Mayhall,  
 C. W. McCurdy,  J. B. Neaton,  C. Ochsenfeld,  J. A. Parkhill,  R. Peverati,  
 V. A. Rassolov,  Yihan Shao,  L. V. Slipchenko,  T. Stauch,  R. P. Steele,  
 J. E. Subotnik,  A. J. W. Thom,  A. Tkatchenko,  D. G. Truhlar,  
 T. Van Voorhis,  T. A. Wesolowski,  K. B. Whaley,  H. L. Woodcock III,  
 P. M. Zimmerman,  S. Faraji,  P. M. W. Gill,  M. Head-Gordon,  
 J. M. Herbert,  A. I. Krylov

 Contributors to earlier versions of Q-Chem not listed above: 
 R. D. Adamson,  B. Austin,  R. Baer,  J. Baker,  G. J. O. Beran,  
 K. Brandhorst,  S. T. Brown,  E. F. C. Byrd,  A. K. Chakraborty,  
 G. K. L. Chan,  Chun-Min Chang,  Yunqing Chen,  C.-L. Cheng,  
 Siu Hung Chien,  D. M. Chipman,  D. L. Crittenden,  H. Dachsel,  
 R. J. Doerksen,  A. D. Dutoi,  R. G. Edgar,  J. Fosso-Tande,  
 L. Fusti-Molnar,  D. Ghosh,  A. Ghysels,  A. Golubeva-Zadorozhnaya,  
 J. Gonthier,  M. S. Gordon,  S. R. Gwaltney,  G. Hawkins,  J. E. Herr,  
 A. Heyden,  S. Hirata,  E. G. Hohenstein,  G. Kedziora,  F. J. Keil,  
 C. Kelley,  Jihan Kim,  R. A. King,  R. Z. Khaliullin,  P. P. Korambath,  
 W. Kurlancheek,  A. Laurent,  A. M. Lee,  M. S. Lee,  S. V. Levchenko,  
 Ching Yeh Lin,  D. Liotard,  E. Livshits,  R. C. Lochan,  I. Lotan,  
 L. A. Martinez-Martinez,  P. E. Maslen,  N. Nair,  D. P. O'Neill,  
 D. Neuhauser,  E. Neuscamman,  C. M. Oana,  R. Olivares-Amaya,  R. Olson,  
 T. M. Perrine,  B. Peters,  P. A. Pieniazek,  A. Prociuk,  Y. M. Rhee,  
 J. Ritchie,  M. A. Rohrdanz,  E. Rosta,  N. J. Russ,  H. F. Schaefer III,  
 M. W. Schmidt,  N. E. Schultz,  S. Sharma,  N. Shenvi,  C. D. Sherrill,  
 A. C. Simmonett,  A. Sodt,  T. Stein,  D. Stuck,  K. S. Thanthiriwatte,  
 V. Vanovschi,  L. Vogt,  Tao Wang,  A. Warshel,  M. A. Watson,  
 C. F. Williams,  Q. Wu,  X. Xu,  Jun Yang,  W. Zhang,  Yan Zhao

 Please cite Q-Chem as follows:
 Y. Shao et al., Mol. Phys. 113, 184-215 (2015)
 DOI: 10.1080/00268976.2014.952696

 Q-Chem 5.4.0 for Intel X86 EM64T Linux

 Parts of Q-Chem use Armadillo 9.800.1 (Horizon Scraper).
 http://arma.sourceforge.net/

 Q-Chem begins on Sun Jul 10 10:09:23 2022  

 Host: 
0

     Scratch files written to ./qchem2934080//
 May1621 |scratch|qcdevops|jenkins|workspace|build_RNUM    
 Processing $rem in /cm/shared/apps/spack/cpu/opt/spack/linux-centos8-zen2/gcc-10.2.0/qchem-5.4-akfmr7b3t57bfs6qan3padb2wnb2i7cl/config/preferences:
 Processing $rem in /home/theleonzhang/.qchemrc:
 Symmetry turned off for PCM/SM12/SMD calculation
 Core orbitals will be frozen

 Checking the input file for inconsistencies... 	...done.

--------------------------------------------------------------
User input:
--------------------------------------------------------------
$molecule
0 1
C	-0.232586	-0.535397	0.010180
C	0.062814	0.276103	1.109580
C	0.536114	1.576503	0.786880
H	-0.063286	-0.070397	2.146280
C	0.611614	1.783903	-0.602320
S	0.089714	0.350203	-1.476620
C	0.908214	2.598703	1.824780
H	0.762614	2.198703	2.846880
H	0.293414	3.518703	1.736380
H	1.970614	2.908303	1.736380
C	-0.232586	-1.976097	0.010180
H	-0.232686	-1.975797	1.090180
H	-1.051786	-2.679897	0.010080
H	0.714514	-2.494997	0.010180
H	0.936314	2.675903	-1.151420
$end

$rem
JOBTYPE		SP
EXCHANGE	HF
CORRELATION	pRIMP2
BASIS		cc-pvtz
METHOD		rimp2
AUX_BASIS	rimp2-cc-pvtz
SOLVENT_METHOD	PCM
PURECART	11111
SYMMETRY	false
MEM_TOTAL	110000
SCF_CONVERGENCE = 6
THRESH=10
$end



$solvent
dielectric 4.90
$end
--------------------------------------------------------------
 ----------------------------------------------------------------
             Standard Nuclear Orientation (Angstroms)
    I     Atom           X                Y                Z
 ----------------------------------------------------------------
    1      C      -0.2325860000    -0.5353970000     0.0101800000
    2      C       0.0628140000     0.2761030000     1.1095800000
    3      C       0.5361140000     1.5765030000     0.7868800000
    4      H      -0.0632860000    -0.0703970000     2.1462800000
    5      C       0.6116140000     1.7839030000    -0.6023200000
    6      S       0.0897140000     0.3502030000    -1.4766200000
    7      C       0.9082140000     2.5987030000     1.8247800000
    8      H       0.7626140000     2.1987030000     2.8468800000
    9      H       0.2934140000     3.5187030000     1.7363800000
   10      H       1.9706140000     2.9083030000     1.7363800000
   11      C      -0.2325860000    -1.9760970000     0.0101800000
   12      H      -0.2326860000    -1.9757970000     1.0901800000
   13      H      -1.0517860000    -2.6798970000     0.0100800000
   14      H       0.7145140000    -2.4949970000     0.0101800000
   15      H       0.9363140000     2.6759030000    -1.1514200000
 ----------------------------------------------------------------
 Nuclear Repulsion Energy =         344.99760462 hartrees
 There are       30 alpha and       30 beta electrons

 Q-Chem warning in module forms1/BasisType.C, line 2236:

 You are not using the predefined 5D/6D in this basis set.

 Requested basis set is cc-pVTZ
 There are 120 shells and 326 basis functions

 Total QAlloc Memory Limit 110000 MB
 Mega-Array Size       188 MB
 MEM_STATIC part       192 MB
 Discretize the solute cavity surface with Lebedev spheres
	Using 110 Lebedev grid points for each H atom
	Using 194 Lebedev grid points for other atoms
	Atomic van der Waals radii will be scaled by 1.20
 Remove points where switching function is < 1.0e-08
 Keep 1060 surface tesserae and discard 1178 interior tesserae
 Molecular Surface Area = 157.936 Angst**2

                       Distance Matrix (Angstroms)
             C (  1)   C (  2)   C (  3)   H (  4)   C (  5)   S (  6)
   C (  2)  1.398025
   C (  3)  2.377874  1.420981
   H (  4)  2.192672  1.100323  2.218001
   C (  5)  2.543026  2.346326  1.406624  3.383596
   S (  6)  1.760324  2.587401  2.612760  3.650441  1.758487
   C (  7)  3.796944  2.573069  1.503525  2.858543  2.577341  4.077369
   H (  8)  4.063569  2.684087  2.163801  2.514312  3.477332  4.749989
   H (  9)  4.437586  3.310666  2.175453  3.629999  2.929215  4.517107
   H ( 10)  4.437671  3.310749  2.175553  3.630072  2.929279  4.517193
   C ( 11)  1.440700  2.523558  3.716871  2.867626  3.901978  2.779590
   H ( 12)  1.800320  2.271288  3.647174  2.185084  4.208651  3.478891
   H ( 13)  2.295641  3.345022  4.608881  3.514253  4.802858  3.562977
   H ( 14)  2.176472  3.051621  4.148759  3.323640  4.323740  3.270491
   H ( 15)  3.609444  3.410889  2.264033  4.406381  1.096633  2.496271
             C (  7)   H (  8)   H (  9)   H ( 10)   C ( 11)   H ( 12)
   H (  8)  1.107198
   H (  9)  1.110042  1.787669
   H ( 10)  1.110117  1.787738  1.784822
   C ( 11)  5.052029  5.144535  5.783534  5.629496
   H ( 12)  4.771513  4.637140  5.557327  5.396901  1.080000
   H ( 13)  5.915941  5.927919  6.573608  6.583540  1.080011  1.527514
   H ( 14)  5.410737  5.484524  6.270700  5.809751  1.079933  1.527467
   H ( 15)  2.977334  4.030421  3.076202  3.076227  4.935255  5.294303
             H ( 13)   H ( 14)
   H ( 14)  1.775951
   H ( 15)  5.829770  5.304405
 
 Requested basis set is rimp2-cc-pVTZ
 There are 250 shells and 848 basis functions
 A cutoff of  1.0D-10 yielded   6204 shell pairs
 There are     45500 function pairs (     58522 Cartesian)
 Smallest overlap matrix eigenvalue = 1.17E-04

 Scale SEOQF with 1.000000e-01/1.000000e-01/1.000000e-01

 Standard Electronic Orientation quadrupole field applied
 Nucleus-field energy     =     0.0000000019 hartrees
 Guess from superposition of atomic densities
 Warning:  Energy on first SCF cycle will be non-variational
 SAD guess density has 60.000000 electrons

 -----------------------------------------------------------------------
  General SCF calculation program by
  Eric Jon Sundstrom, Paul Horn, Yuezhi Mao, Dmitri Zuev, Alec White,
  David Stuck, Shaama M.S., Shane Yost, Joonho Lee, David Small,
  Daniel Levine, Susi Lehtola, Hugh Burton, Evgeny Epifanovsky,
  Bang C. Huynh
 -----------------------------------------------------------------------
 Hartree-Fock
 A restricted SCF calculation will be
 performed using DIIS
 SCF converges when DIIS error is below 1.0e-06
 ---------------------------------------
  Cycle       Energy         DIIS error
 ---------------------------------------
    1    -632.1184233623      2.92e-02  
    2    -629.3394467425      1.90e-03  
    3    -629.4088221954      6.25e-04  
    4    -629.4157145311      3.16e-04  
    5    -629.4174540187      6.21e-05  
    6    -629.4175825509      2.44e-05  
    7    -629.4176147027      1.15e-05  
    8    -629.4176241209      4.75e-06  
    9    -629.4176255952      1.77e-06  
   10    -629.4176257593      4.89e-07  Convergence criterion met
 ---------------------------------------
 SCF time:   CPU 145.40s  wall 145.00s 

************** Final PCM Free Energy Summary **************
 G_electrostatic  =      -0.00539904 hartree =      -3.38794969 kcal/mol
 G_cavitation     =       0.00000000 hartree =       0.00000000 kcal/mol
 G_dispersion     =       0.00000000 hartree =       0.00000000 kcal/mol
 G_repulsion      =       0.00000000 hartree =       0.00000000 kcal/mol
 --------------------------------------------------
 Non-electrostatic Free Energy =       0.00000000 hartree =       0.00000000 kcal/mol
 Total                         =      -0.00539904 hartree =      -3.38794969 kcal/mol
 --------------------------------------------------
 SCF Energy (H0 + V/2)                       =    -629.41762576 
 Solute Internal Energy (H0)                 =    -629.41222672 
 Total Free Energy (H0 + V/2 + non-elec)     =    -629.41762576 hartree
                                             = -394965.52137830 kcal/mol
***********************************************************

 SCF   energy in the final basis set =     -629.4176257593
 Total energy in the final basis set =     -629.4176257593


 --------------------------------------------------------------
  Generalized many-body perturbation theory program
  by Joonho Lee, Fazle Rob, Xintian Feng, Evgeny Epifanovsky

 No regularization used 
 (reg. param. = 0.0000e+00)
  (P|Q)^-1/2 Time:  CPU 0.49 s  wall 0.49 s

 In RI-MP2 calculation: 
 # of frozen core orbitals: 11

 Components of the RIMP2 correlation energy:
        aaaa    correlation energy =        -0.1459173614 a.u.
        abab    correlation energy =        -0.8877108712 a.u.
        bbbb    correlation energy =        -0.1459173614 a.u.
        non-Brillouin singles      =        -0.0000000000 a.u.
        total same-spin energy     =        -0.2918347228 a.u.
        total opposite-spin energy =        -0.8877108712 a.u.

 Total  RIMP2   correlation energy =        -1.1795455939 a.u.
        RIMP2         total energy =      -630.5971713533 a.u.

 RI-MP2 Energy Time:  CPU 11.33 s  wall 11.37 s
 
 --------------------------------------------------------------
 
                    Orbital Energies (a.u.)
 --------------------------------------------------------------
 
 Alpha MOs
 -- Occupied --
-91.9744 -11.2747 -11.2596 -11.2472 -11.2360 -11.2276 -11.2153  -8.9746
 -6.6556  -6.6550  -6.6545  -1.1623  -1.0540  -0.9997  -0.9389  -0.8843
 -0.7426  -0.7252  -0.6476  -0.5920  -0.5784  -0.5662  -0.5591  -0.5419
 -0.5113  -0.4826  -0.4678  -0.4360  -0.3376  -0.3045
 -- Virtual --
  0.0977   0.1445   0.1526   0.1772   0.1856   0.1924   0.1977   0.2295
  0.2340   0.2433   0.2505   0.2695   0.3092   0.3137   0.3442   0.3602
  0.3744   0.3939   0.4113   0.4139   0.4404   0.4614   0.4693   0.4759
  0.4875   0.4997   0.5172   0.5227   0.5389   0.5427   0.5722   0.5878
  0.5985   0.6014   0.6192   0.6319   0.6403   0.6413   0.6437   0.6474
  0.6617   0.6783   0.6809   0.6851   0.7491   0.7556   0.7642   0.7693
  0.8060   0.8128   0.8415   0.8604   0.8631   0.8845   0.9095   0.9222
  0.9503   0.9776   1.0036   1.0095   1.0290   1.0405   1.0642   1.0744
  1.0791   1.0881   1.1267   1.1434   1.1678   1.1741   1.1896   1.2053
  1.2187   1.2261   1.2517   1.2572   1.2813   1.2923   1.3180   1.3264
  1.3411   1.3586   1.3822   1.4036   1.4266   1.4446   1.4515   1.4810
  1.4952   1.5094   1.5284   1.5340   1.5518   1.5623   1.5750   1.5803
  1.5886   1.6360   1.6490   1.6692   1.6849   1.7079   1.7135   1.7537
  1.7604   1.7810   1.8031   1.8182   1.8962   1.9131   1.9318   1.9606
  1.9919   2.0384   2.1016   2.1176   2.1675   2.1883   2.2070   2.2180
  2.2581   2.2833   2.3496   2.4176   2.4641   2.4984   2.5335   2.5605
  2.5695   2.6000   2.6402   2.6507   2.6733   2.6796   2.7230   2.7437
  2.7473   2.7547   2.7828   2.7963   2.8378   2.8451   2.8681   2.8749
  2.9064   2.9310   2.9385   2.9666   2.9880   3.0132   3.0417   3.0615
  3.1007   3.1077   3.1162   3.1408   3.1560   3.1584   3.1941   3.1998
  3.2089   3.2471   3.2561   3.2633   3.2887   3.3023   3.3124   3.3344
  3.3463   3.3584   3.3776   3.3948   3.4003   3.4100   3.4247   3.4404
  3.4491   3.4652   3.4862   3.5004   3.5021   3.5235   3.5434   3.5535
  3.5910   3.5975   3.6085   3.6191   3.6376   3.6646   3.6698   3.6871
  3.7004   3.7108   3.7250   3.7395   3.7488   3.7756   3.7847   3.7920
  3.7986   3.8268   3.8574   3.8671   3.8952   3.9093   3.9355   3.9556
  3.9682   3.9860   4.0103   4.0289   4.0464   4.0694   4.1012   4.1129
  4.1357   4.1460   4.1583   4.1630   4.1734   4.2220   4.2253   4.2355
  4.2689   4.2801   4.3012   4.3362   4.3482   4.3670   4.4012   4.4021
  4.4279   4.4345   4.4550   4.4677   4.4985   4.5218   4.5521   4.5707
  4.6109   4.6364   4.6639   4.6980   4.7101   4.7525   4.7697   4.7828
  4.8131   4.8290   4.8634   4.8869   4.9297   4.9439   5.0724   5.0963
  5.1193   5.1445   5.1854   5.1979   5.2394   5.2612   5.2927   5.3040
  5.3627   5.3988   5.4078   5.4462   5.4762   5.4905   5.5470   5.5737
  5.5917   5.6196   5.6325   5.6962   5.7167   5.8242   5.8472   5.8714
  5.9207   5.9695   6.0319   6.1334   6.2268   6.2437   6.2862   6.3468
  6.4132   6.4778   9.2030  11.4568  12.9033  13.8016  14.1886  14.3906
 --------------------------------------------------------------
 
          Ground-State Mulliken Net Atomic Charges

     Atom                 Charge (a.u.)
  ----------------------------------------
      1 C                     0.043461
      2 C                    -0.270301
      3 C                     0.038318
      4 H                     0.176888
      5 C                    -0.247990
      6 S                    -0.006440
      7 C                    -0.271524
      8 H                     0.101196
      9 H                     0.107064
     10 H                     0.107080
     11 C                    -0.365180
     12 H                     0.118621
     13 H                     0.145159
     14 H                     0.130409
     15 H                     0.193240
  ----------------------------------------
  Sum of atomic charges =     0.000000

 -----------------------------------------------------------------
                    Cartesian Multipole Moments
 -----------------------------------------------------------------
    Charge (ESU x 10^10)
                -0.0000
    Dipole Moment (Debye)
         X       0.5727      Y      -0.0052      Z       2.1696
       Tot       2.2439
    Quadrupole Moments (Debye-Ang)
        XX     -52.7400     XY       2.9435     YY     -43.3763
        XZ      -0.0851     YZ      -1.0981     ZZ     -48.9006
    Octopole Moments (Debye-Ang^2)
       XXX     -36.9215    XXY     -28.1496    XYY      -6.5898
       YYY     -74.3441    XXZ      -2.4663    XYZ      -0.7444
       YYZ      -1.9239    XZZ     -10.4710    YZZ     -21.8110
       ZZZ       0.9607
    Hexadecapole Moments (Debye-Ang^3)
      XXXX    -145.4810   XXXY    -102.3652   XXYY    -149.5878
      XYYY     -85.8269   YYYY    -752.9706   XXXZ     -30.9907
      XXYZ     -29.0359   XYYZ     -15.0879   YYYZ    -100.0349
      XXZZ    -110.8183   XYZZ     -28.4089   YYZZ    -207.8499
      XZZZ     -34.3188   YZZZ     -90.5904   ZZZZ    -482.3201
 -----------------------------------------------------------------
 Total job time:  158.68s(wall), 157.09s(cpu) 
 Sun Jul 10 10:12:02 2022

        *************************************************************
        *                                                           *
        *  Thank you very much for using Q-Chem.  Have a nice day.  *
        *                                                           *
        *************************************************************


remove work dirs ./qchem2934080.0 -- ./qchem2934080.-1
rm -rf ./qchem2934080
