You are running Q-Chem version: 5.4.0

#
# job setting
#
local host:  exp-2-07
current dir: /expanse/lustre/scratch/theleonzhang/temp_project/Hydrogenated_Impropers_Test
input file:  Methylthiophene_Phi_30_Theta_110_Methylthiophene_Hydrogenated_Improper.qcin
output file: 
nprocs     : 0
nthreads   : 1
#
# qchem installation setting
#
QC:          /cm/shared/apps/spack/cpu/opt/spack/linux-centos8-zen2/gcc-10.2.0/qchem-5.4-akfmr7b3t57bfs6qan3padb2wnb2i7cl
QCAUX:       /cm/shared/apps/spack/cpu/opt/spack/linux-centos8-zen2/gcc-10.2.0/qchem-5.4-akfmr7b3t57bfs6qan3padb2wnb2i7cl/qcaux
QCPROG:      /cm/shared/apps/spack/cpu/opt/spack/linux-centos8-zen2/gcc-10.2.0/qchem-5.4-akfmr7b3t57bfs6qan3padb2wnb2i7cl/exe/qcprog.exe_s
QCPROG_S:    /cm/shared/apps/spack/cpu/opt/spack/linux-centos8-zen2/gcc-10.2.0/qchem-5.4-akfmr7b3t57bfs6qan3padb2wnb2i7cl/exe/qcprog.exe_s
PARALLEL:    -DSERIAL
QCMPI:       mpich
#
# qchem directory setting
#
qcrun:       qchem961698
QCSCRATCH:   .
QCLOCALSCR:  
QCTMPDIR:    .
QCFILEPREF:  ./qchem961698
QCSAVEDIR:   
workdirs:    ./qchem961698
workdir0:    ./qchem961698
partmpdirs =  
#
# parallel setting
#
QCRSH:           ssh
QCMPI:           mpich
QCMPIRUN:        /cm/shared/apps/spack/cpu/opt/spack/linux-centos8-zen2/gcc-10.2.0/qchem-5.4-akfmr7b3t57bfs6qan3padb2wnb2i7cl/bin/mpi/mpirun_qchem
QCMACHINEFILE:   ./qchem961698/hostfile

#
# env setting
#
exported envs:   QC QCAUX QCSCRATCH QCRUNNAME QCFILEPREF QCPROG QCPROG_S GUIFILE

Running Job 1 of 1 Methylthiophene_Phi_30_Theta_110_Methylthiophene_Hydrogenated_Improper.qcin
qchem Methylthiophene_Phi_30_Theta_110_Methylthiophene_Hydrogenated_Improper.qcin_961698.0 ./qchem961698/ 0
/cm/shared/apps/spack/cpu/opt/spack/linux-centos8-zen2/gcc-10.2.0/qchem-5.4-akfmr7b3t57bfs6qan3padb2wnb2i7cl/exe/qcprog.exe_s Methylthiophene_Phi_30_Theta_110_Methylthiophene_Hydrogenated_Improper.qcin_961698.0 ./qchem961698/
                  Welcome to Q-Chem
     A Quantum Leap Into The Future Of Chemistry


 Q-Chem 5.4, Q-Chem, Inc., Pleasanton, CA (2021)

 License issued to: University of California, San Diego (site)

 E. Epifanovsky,  A. T. B. Gilbert,  Xintian Feng,  Joonho Lee,  Yuezhi Mao,  
 N. Mardirossian,  P. Pokhilko,  A. White,  M. Wormit,  M. P. Coons,  
 A. L. Dempwolff,  Zhengting Gan,  D. Hait,  P. R. Horn,  L. D. Jacobson,  
 I. Kaliman,  J. Kussmann,  A. W. Lange,  Ka Un Lao,  D. S. Levine,  Jie Liu,  
 S. C. McKenzie,  A. F. Morrison,  K. Nanda,  F. Plasser,  D. R. Rehn,  
 M. L. Vidal,  Zhi-Qiang You,  Ying Zhu,  B. Alam,  B. Albrecht,  
 A. Aldossary,  E. Alguire,  J. H. Andersen,  D. Barton,  K. Begam,  A. Behn,  
 Y. A. Bernard,  E. J. Berquist,  H. Burton,  A. Carreras,  K. Carter-Fenk,  
 R. Chakraborty,  A. D. Chien,  K. D. Closser,  V. Cofer-Shabica,  
 S. Dasgupta,  Jia Deng,  M. de Wergifosse,  M. Diedenhofen,  Hainam Do,  
 S. Ehlert,  Po-Tung Fang,  S. Fatehi,  Qingguo Feng,  J. Gayvert,  
 Qinghui Ge,  G. Gidofalvi,  M. Goldey,  J. Gomes,  C. Gonzalez-Espinoza,  
 S. Gulania,  A. Gunina,  M. W. D. Hanson-Heine,  P. H. P. Harbach,  
 A. W. Hauser,  M. F. Herbst,  M. Hernandez Vera,  M. Hodecker,  
 Z. C. Holden,  S. Houck,  Xunkun Huang,  Kerwin Hui,  B. C. Huynh,  
 M. Ivanov,  Hyunjun Ji,  Hanjie Jiang,  B. Kaduk,  S. Kaehler,  
 K. Khistyaev,  Jaehoon Kim,  P. Klunzinger,  Z. Koczor-Benda,  
 Joong Hoon Koh,  D. Kosenkov,  L. Koulias,  T. Kowalczyk,  C. M. Krauter,  
 K. Kue,  A. Kunitsa,  T. Kus,  A. Landau,  K. V. Lawler,  D. Lefrancois,  
 S. Lehtola,  Rain Li,  Yi-Pei Li,  Jiashu Liang,  M. Liebenthal,  
 Hung-Hsuan Lin,  You-Sheng Lin,  Fenglai Liu,  Kuan-Yu Liu,  
 M. Loipersberger,  A. Luenser,  A. Manjanath,  P. Manohar,  E. Mansoor,  
 S. F. Manzer,  Shan-Ping Mao,  A. V. Marenich,  T. Markovich,  S. Mason,  
 S. A. Maurer,  P. F. McLaughlin,  M. F. S. J. Menger,  J.-M. Mewes,  
 S. A. Mewes,  P. Morgante,  J. W. Mullinax,  T. S. Nguyen-Beck,  
 K. J. Oosterbaan,  G. Paran,  Alexander C. Paul,  Suranjan K. Paul,  
 F. Pavosevic,  Zheng Pei,  S. Prager,  E. I. Proynov,  E. Ramos,  B. Rana,  
 A. E. Rask,  A. Rettig,  R. M. Richard,  F. Rob,  E. Rossomme,  T. Scheele,  
 M. Scheurer,  M. Schneider,  N. Sergueev,  S. M. Sharada,  W. Skomorowski,  
 D. W. Small,  C. J. Stein,  Yu-Chuan Su,  E. J. Sundstrom,  Zhen Tao,  
 J. Thirman,  T. Tsuchimochi,  N. M. Tubman,  S. P. Veccham,  O. Vydrov,  
 J. Wenzel,  J. Witte,  A. Yamada,  Kun Yao,  S. Yeganeh,  S. R. Yost,  
 A. Zech,  Igor Ying Zhang,  Xing Zhang,  Yu Zhang,  D. Zuev,  
 A. Aspuru-Guzik,  A. T. Bell,  N. A. Besley,  K. B. Bravaya,  B. R. Brooks,  
 D. Casanova,  Jeng-Da Chai,  S. Coriani,  C. J. Cramer,  
 A. E. DePrince, III,  R. A. DiStasio Jr.,  A. Dreuw,  B. D. Dunietz,  
 T. R. Furlani,  W. A. Goddard III,  S. Grimme,  S. Hammes-Schiffer,  
 T. Head-Gordon,  W. J. Hehre,  Chao-Ping Hsu,  T.-C. Jagau,  Yousung Jung,  
 A. Klamt,  Jing Kong,  D. S. Lambrecht,  WanZhen Liang,  N. J. Mayhall,  
 C. W. McCurdy,  J. B. Neaton,  C. Ochsenfeld,  J. A. Parkhill,  R. Peverati,  
 V. A. Rassolov,  Yihan Shao,  L. V. Slipchenko,  T. Stauch,  R. P. Steele,  
 J. E. Subotnik,  A. J. W. Thom,  A. Tkatchenko,  D. G. Truhlar,  
 T. Van Voorhis,  T. A. Wesolowski,  K. B. Whaley,  H. L. Woodcock III,  
 P. M. Zimmerman,  S. Faraji,  P. M. W. Gill,  M. Head-Gordon,  
 J. M. Herbert,  A. I. Krylov

 Contributors to earlier versions of Q-Chem not listed above: 
 R. D. Adamson,  B. Austin,  R. Baer,  J. Baker,  G. J. O. Beran,  
 K. Brandhorst,  S. T. Brown,  E. F. C. Byrd,  A. K. Chakraborty,  
 G. K. L. Chan,  Chun-Min Chang,  Yunqing Chen,  C.-L. Cheng,  
 Siu Hung Chien,  D. M. Chipman,  D. L. Crittenden,  H. Dachsel,  
 R. J. Doerksen,  A. D. Dutoi,  R. G. Edgar,  J. Fosso-Tande,  
 L. Fusti-Molnar,  D. Ghosh,  A. Ghysels,  A. Golubeva-Zadorozhnaya,  
 J. Gonthier,  M. S. Gordon,  S. R. Gwaltney,  G. Hawkins,  J. E. Herr,  
 A. Heyden,  S. Hirata,  E. G. Hohenstein,  G. Kedziora,  F. J. Keil,  
 C. Kelley,  Jihan Kim,  R. A. King,  R. Z. Khaliullin,  P. P. Korambath,  
 W. Kurlancheek,  A. Laurent,  A. M. Lee,  M. S. Lee,  S. V. Levchenko,  
 Ching Yeh Lin,  D. Liotard,  E. Livshits,  R. C. Lochan,  I. Lotan,  
 L. A. Martinez-Martinez,  P. E. Maslen,  N. Nair,  D. P. O'Neill,  
 D. Neuhauser,  E. Neuscamman,  C. M. Oana,  R. Olivares-Amaya,  R. Olson,  
 T. M. Perrine,  B. Peters,  P. A. Pieniazek,  A. Prociuk,  Y. M. Rhee,  
 J. Ritchie,  M. A. Rohrdanz,  E. Rosta,  N. J. Russ,  H. F. Schaefer III,  
 M. W. Schmidt,  N. E. Schultz,  S. Sharma,  N. Shenvi,  C. D. Sherrill,  
 A. C. Simmonett,  A. Sodt,  T. Stein,  D. Stuck,  K. S. Thanthiriwatte,  
 V. Vanovschi,  L. Vogt,  Tao Wang,  A. Warshel,  M. A. Watson,  
 C. F. Williams,  Q. Wu,  X. Xu,  Jun Yang,  W. Zhang,  Yan Zhao

 Please cite Q-Chem as follows:
 Y. Shao et al., Mol. Phys. 113, 184-215 (2015)
 DOI: 10.1080/00268976.2014.952696

 Q-Chem 5.4.0 for Intel X86 EM64T Linux

 Parts of Q-Chem use Armadillo 9.800.1 (Horizon Scraper).
 http://arma.sourceforge.net/

 Q-Chem begins on Sun Jul 10 08:53:28 2022  

 Host: 
0

     Scratch files written to ./qchem961698//
 May1621 |scratch|qcdevops|jenkins|workspace|build_RNUM    
 Processing $rem in /cm/shared/apps/spack/cpu/opt/spack/linux-centos8-zen2/gcc-10.2.0/qchem-5.4-akfmr7b3t57bfs6qan3padb2wnb2i7cl/config/preferences:
 Processing $rem in /home/theleonzhang/.qchemrc:
 Symmetry turned off for PCM/SM12/SMD calculation
 Core orbitals will be frozen

 Checking the input file for inconsistencies... 	...done.

--------------------------------------------------------------
User input:
--------------------------------------------------------------
$molecule
0 1
C	-0.336977	-0.485419	0.010669
C	0.094823	0.262481	1.110069
C	0.786823	1.460981	0.787369
H	-0.089577	-0.056919	2.146769
C	0.897123	1.652081	-0.601831
S	0.134223	0.330681	-1.476131
C	1.330723	2.402981	1.825269
H	1.117923	2.034381	2.847369
H	0.885023	3.415781	1.736869
H	2.430723	2.523381	1.736869
C	-0.336977	-1.926119	0.010669
H	-0.706477	-1.926319	1.025469
H	0.432823	-2.629919	0.290869
H	-1.226977	-2.445019	-0.313231
H	1.371823	2.474081	-1.150931
$end

$rem
JOBTYPE		SP
EXCHANGE	HF
CORRELATION	pRIMP2
BASIS		cc-pvtz
METHOD		rimp2
AUX_BASIS	rimp2-cc-pvtz
SOLVENT_METHOD	PCM
PURECART	11111
SYMMETRY	false
MEM_TOTAL	110000
SCF_CONVERGENCE = 6
THRESH=10
$end



$solvent
dielectric 4.90
$end
--------------------------------------------------------------
 ----------------------------------------------------------------
             Standard Nuclear Orientation (Angstroms)
    I     Atom           X                Y                Z
 ----------------------------------------------------------------
    1      C      -0.3369770000    -0.4854190000     0.0106690000
    2      C       0.0948230000     0.2624810000     1.1100690000
    3      C       0.7868230000     1.4609810000     0.7873690000
    4      H      -0.0895770000    -0.0569190000     2.1467690000
    5      C       0.8971230000     1.6520810000    -0.6018310000
    6      S       0.1342230000     0.3306810000    -1.4761310000
    7      C       1.3307230000     2.4029810000     1.8252690000
    8      H       1.1179230000     2.0343810000     2.8473690000
    9      H       0.8850230000     3.4157810000     1.7368690000
   10      H       2.4307230000     2.5233810000     1.7368690000
   11      C      -0.3369770000    -1.9261190000     0.0106690000
   12      H      -0.7064770000    -1.9263190000     1.0254690000
   13      H       0.4328230000    -2.6299190000     0.2908690000
   14      H      -1.2269770000    -2.4450190000    -0.3132310000
   15      H       1.3718230000     2.4740810000    -1.1509310000
 ----------------------------------------------------------------
 Nuclear Repulsion Energy =         345.64342352 hartrees
 There are       30 alpha and       30 beta electrons

 Q-Chem warning in module forms1/BasisType.C, line 2236:

 You are not using the predefined 5D/6D in this basis set.

 Requested basis set is cc-pVTZ
 There are 120 shells and 326 basis functions

 Total QAlloc Memory Limit 110000 MB
 Mega-Array Size       188 MB
 MEM_STATIC part       192 MB
 Discretize the solute cavity surface with Lebedev spheres
	Using 110 Lebedev grid points for each H atom
	Using 194 Lebedev grid points for other atoms
	Atomic van der Waals radii will be scaled by 1.20
 Remove points where switching function is < 1.0e-08
 Keep 1052 surface tesserae and discard 1186 interior tesserae
 Molecular Surface Area = 157.921 Angst**2

                       Distance Matrix (Angstroms)
             C (  1)   C (  2)   C (  3)   H (  4)   C (  5)   S (  6)
   C (  2)  1.398029
   C (  3)  2.377953  1.421056
   H (  4)  2.192656  1.100348  2.218122
   C (  5)  2.543043  2.346332  1.406614  3.383646
   S (  6)  1.760291  2.587399  2.612833  3.650442  1.758555
   C (  7)  3.796953  2.573072  1.503472  2.858622  2.577339  4.077411
   H (  8)  4.063618  2.684134  2.163796  2.514445  3.477339  4.750043
   H (  9)  4.437613  3.310679  2.175416  3.630084  2.929215  4.517180
   H ( 10)  4.437658  3.310736  2.175466  3.630135  2.929268  4.517213
   C ( 11)  1.440700  2.486986  3.652210  2.849217  3.834276  2.743310
   H ( 12)  1.800706  2.332399  3.709506  2.265510  4.245537  3.472582
   H ( 13)  2.295645  3.025113  4.136096  3.215213  4.398637  3.460723
   H ( 14)  2.176475  3.332191  4.530292  3.612243  4.623994  3.302985
   H ( 15)  3.609425  3.410869  2.263980  4.406413  1.096602  2.496312
             C (  7)   H (  8)   H (  9)   H ( 10)   C ( 11)   H ( 12)
   H (  8)  1.107176
   H (  9)  1.110057  1.787657
   H ( 10)  1.110095  1.787673  1.784815
   C ( 11)  4.981476  5.084207  5.745341  5.517063
   H ( 12)  4.851052  4.725981  5.619341  5.490714  1.079977
   H ( 13)  5.337667  5.362905  6.232647  5.713057  1.080018  1.527316
   H ( 14)  5.883716  5.962631  6.558386  6.501283  1.079939  1.527117
   H ( 15)  2.977333  4.030410  3.076225  3.076213  4.861180  5.331001
             H ( 13)   H ( 14)
   H ( 14)  1.775968
   H ( 15)  5.386216  5.626104
 
 Requested basis set is rimp2-cc-pVTZ
 There are 250 shells and 848 basis functions
 A cutoff of  1.0D-10 yielded   6228 shell pairs
 There are     45672 function pairs (     58724 Cartesian)
 Smallest overlap matrix eigenvalue = 1.19E-04

 Scale SEOQF with 1.000000e-01/1.000000e-01/1.000000e-01

 Standard Electronic Orientation quadrupole field applied
 Nucleus-field energy     =     0.0000000012 hartrees
 Guess from superposition of atomic densities
 Warning:  Energy on first SCF cycle will be non-variational
 SAD guess density has 60.000000 electrons

 -----------------------------------------------------------------------
  General SCF calculation program by
  Eric Jon Sundstrom, Paul Horn, Yuezhi Mao, Dmitri Zuev, Alec White,
  David Stuck, Shaama M.S., Shane Yost, Joonho Lee, David Small,
  Daniel Levine, Susi Lehtola, Hugh Burton, Evgeny Epifanovsky,
  Bang C. Huynh
 -----------------------------------------------------------------------
 Hartree-Fock
 A restricted SCF calculation will be
 performed using DIIS
 SCF converges when DIIS error is below 1.0e-06
 ---------------------------------------
  Cycle       Energy         DIIS error
 ---------------------------------------
    1    -632.1231661525      2.92e-02  
    2    -629.3284508369      1.89e-03  
    3    -629.3976992199      6.15e-04  
    4    -629.4045836480      3.05e-04  
    5    -629.4062332489      6.15e-05  
    6    -629.4063633158      2.41e-05  
    7    -629.4063967361      1.15e-05  
    8    -629.4064067518      4.24e-06  
    9    -629.4064081626      1.82e-06  
   10    -629.4064083187      5.23e-07  Convergence criterion met
 ---------------------------------------
 SCF time:   CPU 143.95s  wall 145.00s 

************** Final PCM Free Energy Summary **************
 G_electrostatic  =      -0.00534324 hartree =      -3.35293197 kcal/mol
 G_cavitation     =       0.00000000 hartree =       0.00000000 kcal/mol
 G_dispersion     =       0.00000000 hartree =       0.00000000 kcal/mol
 G_repulsion      =       0.00000000 hartree =       0.00000000 kcal/mol
 --------------------------------------------------
 Non-electrostatic Free Energy =       0.00000000 hartree =       0.00000000 kcal/mol
 Total                         =      -0.00534324 hartree =      -3.35293197 kcal/mol
 --------------------------------------------------
 SCF Energy (H0 + V/2)                       =    -629.40640832 
 Solute Internal Energy (H0)                 =    -629.40106508 
 Total Free Energy (H0 + V/2 + non-elec)     =    -629.40640832 hartree
                                             = -394958.48232807 kcal/mol
***********************************************************

 SCF   energy in the final basis set =     -629.4064083187
 Total energy in the final basis set =     -629.4064083187


 --------------------------------------------------------------
  Generalized many-body perturbation theory program
  by Joonho Lee, Fazle Rob, Xintian Feng, Evgeny Epifanovsky

 No regularization used 
 (reg. param. = 0.0000e+00)
  (P|Q)^-1/2 Time:  CPU 0.48 s  wall 0.48 s

 In RI-MP2 calculation: 
 # of frozen core orbitals: 11

 Components of the RIMP2 correlation energy:
        aaaa    correlation energy =        -0.1463350327 a.u.
        abab    correlation energy =        -0.8894060758 a.u.
        bbbb    correlation energy =        -0.1463350327 a.u.
        non-Brillouin singles      =        -0.0000000000 a.u.
        total same-spin energy     =        -0.2926700654 a.u.
        total opposite-spin energy =        -0.8894060758 a.u.

 Total  RIMP2   correlation energy =        -1.1820761412 a.u.
        RIMP2         total energy =      -630.5884844599 a.u.

 RI-MP2 Energy Time:  CPU 11.09 s  wall 11.12 s
 
 --------------------------------------------------------------
 
                    Orbital Energies (a.u.)
 --------------------------------------------------------------
 
 Alpha MOs
 -- Occupied --
-91.9735 -11.2685 -11.2637 -11.2477 -11.2391 -11.2279 -11.2134  -8.9740
 -6.6549  -6.6542  -6.6537  -1.1633  -1.0535  -0.9993  -0.9388  -0.8843
 -0.7434  -0.7259  -0.6476  -0.5875  -0.5796  -0.5677  -0.5574  -0.5420
 -0.5142  -0.4812  -0.4650  -0.4335  -0.3377  -0.3033
 -- Virtual --
  0.0894   0.1445   0.1528   0.1768   0.1791   0.1902   0.2077   0.2249
  0.2321   0.2412   0.2514   0.2680   0.3026   0.3100   0.3430   0.3565
  0.3812   0.3962   0.4134   0.4218   0.4398   0.4502   0.4701   0.4791
  0.4796   0.4987   0.5042   0.5306   0.5409   0.5598   0.5705   0.5813
  0.5954   0.6024   0.6145   0.6272   0.6335   0.6348   0.6448   0.6482
  0.6587   0.6634   0.6816   0.6904   0.7332   0.7501   0.7653   0.7821
  0.8009   0.8177   0.8409   0.8592   0.8727   0.8872   0.9062   0.9270
  0.9530   0.9737   1.0047   1.0166   1.0248   1.0320   1.0569   1.0734
  1.0843   1.0894   1.1200   1.1476   1.1583   1.1759   1.1828   1.2037
  1.2219   1.2373   1.2539   1.2637   1.2843   1.2956   1.3028   1.3203
  1.3405   1.3759   1.3795   1.4017   1.4241   1.4380   1.4528   1.4806
  1.4933   1.5098   1.5233   1.5345   1.5445   1.5574   1.5703   1.5901
  1.6111   1.6353   1.6625   1.6707   1.6952   1.6994   1.7176   1.7411
  1.7603   1.7723   1.7962   1.8222   1.8991   1.9179   1.9314   1.9656
  1.9822   2.0401   2.0881   2.1068   2.1656   2.1841   2.2038   2.2100
  2.2579   2.2762   2.3499   2.4154   2.4677   2.4831   2.5346   2.5563
  2.5738   2.5954   2.6386   2.6560   2.6623   2.6769   2.7180   2.7367
  2.7490   2.7627   2.7719   2.7908   2.8286   2.8490   2.8575   2.8928
  2.8989   2.9213   2.9684   2.9717   2.9976   3.0181   3.0360   3.0543
  3.0857   3.1114   3.1264   3.1406   3.1557   3.1615   3.1705   3.1973
  3.2078   3.2314   3.2634   3.2647   3.2974   3.3048   3.3218   3.3359
  3.3493   3.3541   3.3735   3.3813   3.4023   3.4064   3.4240   3.4347
  3.4412   3.4643   3.4839   3.5074   3.5143   3.5273   3.5383   3.5497
  3.5805   3.5966   3.6138   3.6304   3.6328   3.6585   3.6648   3.6777
  3.7086   3.7205   3.7321   3.7546   3.7621   3.7680   3.7877   3.7976
  3.8109   3.8265   3.8610   3.8773   3.8988   3.9246   3.9333   3.9515
  3.9555   3.9828   4.0101   4.0357   4.0425   4.0786   4.1001   4.1102
  4.1184   4.1390   4.1613   4.1768   4.2087   4.2178   4.2283   4.2687
  4.2784   4.2865   4.3221   4.3397   4.3506   4.3590   4.4007   4.4080
  4.4238   4.4371   4.4528   4.4648   4.4911   4.5299   4.5584   4.5730
  4.6067   4.6147   4.6396   4.6865   4.7170   4.7359   4.7834   4.7929
  4.8132   4.8290   4.8807   4.8821   4.9049   4.9097   5.0525   5.0913
  5.1107   5.1352   5.1814   5.2056   5.2338   5.2574   5.2908   5.3202
  5.3585   5.4013   5.4095   5.4518   5.4606   5.5061   5.5483   5.5640
  5.6052   5.6194   5.6352   5.6810   5.7050   5.8136   5.8290   5.8657
  5.9421   5.9952   6.0291   6.1223   6.2273   6.2383   6.2740   6.3456
  6.4383   6.5333   9.2114  11.4878  12.8686  13.7555  14.1903  14.3873
 --------------------------------------------------------------
 
          Ground-State Mulliken Net Atomic Charges

     Atom                 Charge (a.u.)
  ----------------------------------------
      1 C                     0.006705
      2 C                    -0.248723
      3 C                     0.032275
      4 H                     0.178452
      5 C                    -0.238042
      6 S                    -0.003331
      7 C                    -0.270323
      8 H                     0.101366
      9 H                     0.106857
     10 H                     0.106696
     11 C                    -0.356332
     12 H                     0.114411
     13 H                     0.150562
     14 H                     0.125537
     15 H                     0.193891
  ----------------------------------------
  Sum of atomic charges =     0.000000

 -----------------------------------------------------------------
                    Cartesian Multipole Moments
 -----------------------------------------------------------------
    Charge (ESU x 10^10)
                -0.0000
    Dipole Moment (Debye)
         X       0.7003      Y       0.1340      Z       2.1702
       Tot       2.2843
    Quadrupole Moments (Debye-Ang)
        XX     -51.5841     XY       4.2476     YY     -44.7369
        XZ       0.0622     YZ      -1.0851     ZZ     -48.7498
    Octopole Moments (Debye-Ang^2)
       XXX     -51.8686    XXY     -22.4771    XYY      -9.9809
       YYY     -68.6743    XXZ      -3.1044    XYZ      -1.8878
       YYZ      -1.7037    XZZ     -15.0288    YZZ     -19.7561
       ZZZ       1.3171
    Hexadecapole Moments (Debye-Ang^3)
      XXXX    -221.8509   XXXY    -137.1559   XXYY    -144.9808
      XYYY    -126.6621   YYYY    -680.4674   XXXZ     -46.1008
      XXYZ     -27.9013   XYYZ     -18.8580   YYYZ     -92.0059
      XXZZ    -120.8822   XYZZ     -39.5047   YYZZ    -195.3255
      XZZZ     -50.7619   YZZZ     -83.2641   ZZZZ    -482.4190
 -----------------------------------------------------------------
 Total job time:  157.33s(wall), 155.39s(cpu) 
 Sun Jul 10 08:56:05 2022

        *************************************************************
        *                                                           *
        *  Thank you very much for using Q-Chem.  Have a nice day.  *
        *                                                           *
        *************************************************************


remove work dirs ./qchem961698.0 -- ./qchem961698.-1
rm -rf ./qchem961698
