You are running Q-Chem version: 5.4.0

#
# job setting
#
local host:  exp-5-33
current dir: /expanse/lustre/scratch/theleonzhang/temp_project/Hydrogenated_Impropers_Test
input file:  Methylthiophene_Phi_30_Theta_310_Methylthiophene_Hydrogenated_Improper_Alternate.qcin
output file: 
nprocs     : 0
nthreads   : 1
#
# qchem installation setting
#
QC:          /cm/shared/apps/spack/cpu/opt/spack/linux-centos8-zen2/gcc-10.2.0/qchem-5.4-akfmr7b3t57bfs6qan3padb2wnb2i7cl
QCAUX:       /cm/shared/apps/spack/cpu/opt/spack/linux-centos8-zen2/gcc-10.2.0/qchem-5.4-akfmr7b3t57bfs6qan3padb2wnb2i7cl/qcaux
QCPROG:      /cm/shared/apps/spack/cpu/opt/spack/linux-centos8-zen2/gcc-10.2.0/qchem-5.4-akfmr7b3t57bfs6qan3padb2wnb2i7cl/exe/qcprog.exe_s
QCPROG_S:    /cm/shared/apps/spack/cpu/opt/spack/linux-centos8-zen2/gcc-10.2.0/qchem-5.4-akfmr7b3t57bfs6qan3padb2wnb2i7cl/exe/qcprog.exe_s
PARALLEL:    -DSERIAL
QCMPI:       mpich
#
# qchem directory setting
#
qcrun:       qchem2192893
QCSCRATCH:   .
QCLOCALSCR:  
QCTMPDIR:    .
QCFILEPREF:  ./qchem2192893
QCSAVEDIR:   
workdirs:    ./qchem2192893
workdir0:    ./qchem2192893
partmpdirs =  
#
# parallel setting
#
QCRSH:           ssh
QCMPI:           mpich
QCMPIRUN:        /cm/shared/apps/spack/cpu/opt/spack/linux-centos8-zen2/gcc-10.2.0/qchem-5.4-akfmr7b3t57bfs6qan3padb2wnb2i7cl/bin/mpi/mpirun_qchem
QCMACHINEFILE:   ./qchem2192893/hostfile

#
# env setting
#
exported envs:   QC QCAUX QCSCRATCH QCRUNNAME QCFILEPREF QCPROG QCPROG_S GUIFILE

Running Job 1 of 1 Methylthiophene_Phi_30_Theta_310_Methylthiophene_Hydrogenated_Improper_Alternate.qcin
qchem Methylthiophene_Phi_30_Theta_310_Methylthiophene_Hydrogenated_Improper_Alternate.qcin_2192893.0 ./qchem2192893/ 0
/cm/shared/apps/spack/cpu/opt/spack/linux-centos8-zen2/gcc-10.2.0/qchem-5.4-akfmr7b3t57bfs6qan3padb2wnb2i7cl/exe/qcprog.exe_s Methylthiophene_Phi_30_Theta_310_Methylthiophene_Hydrogenated_Improper_Alternate.qcin_2192893.0 ./qchem2192893/
                  Welcome to Q-Chem
     A Quantum Leap Into The Future Of Chemistry


 Q-Chem 5.4, Q-Chem, Inc., Pleasanton, CA (2021)

 License issued to: University of California, San Diego (site)

 E. Epifanovsky,  A. T. B. Gilbert,  Xintian Feng,  Joonho Lee,  Yuezhi Mao,  
 N. Mardirossian,  P. Pokhilko,  A. White,  M. Wormit,  M. P. Coons,  
 A. L. Dempwolff,  Zhengting Gan,  D. Hait,  P. R. Horn,  L. D. Jacobson,  
 I. Kaliman,  J. Kussmann,  A. W. Lange,  Ka Un Lao,  D. S. Levine,  Jie Liu,  
 S. C. McKenzie,  A. F. Morrison,  K. Nanda,  F. Plasser,  D. R. Rehn,  
 M. L. Vidal,  Zhi-Qiang You,  Ying Zhu,  B. Alam,  B. Albrecht,  
 A. Aldossary,  E. Alguire,  J. H. Andersen,  D. Barton,  K. Begam,  A. Behn,  
 Y. A. Bernard,  E. J. Berquist,  H. Burton,  A. Carreras,  K. Carter-Fenk,  
 R. Chakraborty,  A. D. Chien,  K. D. Closser,  V. Cofer-Shabica,  
 S. Dasgupta,  Jia Deng,  M. de Wergifosse,  M. Diedenhofen,  Hainam Do,  
 S. Ehlert,  Po-Tung Fang,  S. Fatehi,  Qingguo Feng,  J. Gayvert,  
 Qinghui Ge,  G. Gidofalvi,  M. Goldey,  J. Gomes,  C. Gonzalez-Espinoza,  
 S. Gulania,  A. Gunina,  M. W. D. Hanson-Heine,  P. H. P. Harbach,  
 A. W. Hauser,  M. F. Herbst,  M. Hernandez Vera,  M. Hodecker,  
 Z. C. Holden,  S. Houck,  Xunkun Huang,  Kerwin Hui,  B. C. Huynh,  
 M. Ivanov,  Hyunjun Ji,  Hanjie Jiang,  B. Kaduk,  S. Kaehler,  
 K. Khistyaev,  Jaehoon Kim,  P. Klunzinger,  Z. Koczor-Benda,  
 Joong Hoon Koh,  D. Kosenkov,  L. Koulias,  T. Kowalczyk,  C. M. Krauter,  
 K. Kue,  A. Kunitsa,  T. Kus,  A. Landau,  K. V. Lawler,  D. Lefrancois,  
 S. Lehtola,  Rain Li,  Yi-Pei Li,  Jiashu Liang,  M. Liebenthal,  
 Hung-Hsuan Lin,  You-Sheng Lin,  Fenglai Liu,  Kuan-Yu Liu,  
 M. Loipersberger,  A. Luenser,  A. Manjanath,  P. Manohar,  E. Mansoor,  
 S. F. Manzer,  Shan-Ping Mao,  A. V. Marenich,  T. Markovich,  S. Mason,  
 S. A. Maurer,  P. F. McLaughlin,  M. F. S. J. Menger,  J.-M. Mewes,  
 S. A. Mewes,  P. Morgante,  J. W. Mullinax,  T. S. Nguyen-Beck,  
 K. J. Oosterbaan,  G. Paran,  Alexander C. Paul,  Suranjan K. Paul,  
 F. Pavosevic,  Zheng Pei,  S. Prager,  E. I. Proynov,  E. Ramos,  B. Rana,  
 A. E. Rask,  A. Rettig,  R. M. Richard,  F. Rob,  E. Rossomme,  T. Scheele,  
 M. Scheurer,  M. Schneider,  N. Sergueev,  S. M. Sharada,  W. Skomorowski,  
 D. W. Small,  C. J. Stein,  Yu-Chuan Su,  E. J. Sundstrom,  Zhen Tao,  
 J. Thirman,  T. Tsuchimochi,  N. M. Tubman,  S. P. Veccham,  O. Vydrov,  
 J. Wenzel,  J. Witte,  A. Yamada,  Kun Yao,  S. Yeganeh,  S. R. Yost,  
 A. Zech,  Igor Ying Zhang,  Xing Zhang,  Yu Zhang,  D. Zuev,  
 A. Aspuru-Guzik,  A. T. Bell,  N. A. Besley,  K. B. Bravaya,  B. R. Brooks,  
 D. Casanova,  Jeng-Da Chai,  S. Coriani,  C. J. Cramer,  
 A. E. DePrince, III,  R. A. DiStasio Jr.,  A. Dreuw,  B. D. Dunietz,  
 T. R. Furlani,  W. A. Goddard III,  S. Grimme,  S. Hammes-Schiffer,  
 T. Head-Gordon,  W. J. Hehre,  Chao-Ping Hsu,  T.-C. Jagau,  Yousung Jung,  
 A. Klamt,  Jing Kong,  D. S. Lambrecht,  WanZhen Liang,  N. J. Mayhall,  
 C. W. McCurdy,  J. B. Neaton,  C. Ochsenfeld,  J. A. Parkhill,  R. Peverati,  
 V. A. Rassolov,  Yihan Shao,  L. V. Slipchenko,  T. Stauch,  R. P. Steele,  
 J. E. Subotnik,  A. J. W. Thom,  A. Tkatchenko,  D. G. Truhlar,  
 T. Van Voorhis,  T. A. Wesolowski,  K. B. Whaley,  H. L. Woodcock III,  
 P. M. Zimmerman,  S. Faraji,  P. M. W. Gill,  M. Head-Gordon,  
 J. M. Herbert,  A. I. Krylov

 Contributors to earlier versions of Q-Chem not listed above: 
 R. D. Adamson,  B. Austin,  R. Baer,  J. Baker,  G. J. O. Beran,  
 K. Brandhorst,  S. T. Brown,  E. F. C. Byrd,  A. K. Chakraborty,  
 G. K. L. Chan,  Chun-Min Chang,  Yunqing Chen,  C.-L. Cheng,  
 Siu Hung Chien,  D. M. Chipman,  D. L. Crittenden,  H. Dachsel,  
 R. J. Doerksen,  A. D. Dutoi,  R. G. Edgar,  J. Fosso-Tande,  
 L. Fusti-Molnar,  D. Ghosh,  A. Ghysels,  A. Golubeva-Zadorozhnaya,  
 J. Gonthier,  M. S. Gordon,  S. R. Gwaltney,  G. Hawkins,  J. E. Herr,  
 A. Heyden,  S. Hirata,  E. G. Hohenstein,  G. Kedziora,  F. J. Keil,  
 C. Kelley,  Jihan Kim,  R. A. King,  R. Z. Khaliullin,  P. P. Korambath,  
 W. Kurlancheek,  A. Laurent,  A. M. Lee,  M. S. Lee,  S. V. Levchenko,  
 Ching Yeh Lin,  D. Liotard,  E. Livshits,  R. C. Lochan,  I. Lotan,  
 L. A. Martinez-Martinez,  P. E. Maslen,  N. Nair,  D. P. O'Neill,  
 D. Neuhauser,  E. Neuscamman,  C. M. Oana,  R. Olivares-Amaya,  R. Olson,  
 T. M. Perrine,  B. Peters,  P. A. Pieniazek,  A. Prociuk,  Y. M. Rhee,  
 J. Ritchie,  M. A. Rohrdanz,  E. Rosta,  N. J. Russ,  H. F. Schaefer III,  
 M. W. Schmidt,  N. E. Schultz,  S. Sharma,  N. Shenvi,  C. D. Sherrill,  
 A. C. Simmonett,  A. Sodt,  T. Stein,  D. Stuck,  K. S. Thanthiriwatte,  
 V. Vanovschi,  L. Vogt,  Tao Wang,  A. Warshel,  M. A. Watson,  
 C. F. Williams,  Q. Wu,  X. Xu,  Jun Yang,  W. Zhang,  Yan Zhao

 Please cite Q-Chem as follows:
 Y. Shao et al., Mol. Phys. 113, 184-215 (2015)
 DOI: 10.1080/00268976.2014.952696

 Q-Chem 5.4.0 for Intel X86 EM64T Linux

 Parts of Q-Chem use Armadillo 9.800.1 (Horizon Scraper).
 http://arma.sourceforge.net/

 Q-Chem begins on Sun Jul 10 10:46:32 2022  

 Host: 
0

     Scratch files written to ./qchem2192893//
 May1621 |scratch|qcdevops|jenkins|workspace|build_RNUM    
 Processing $rem in /cm/shared/apps/spack/cpu/opt/spack/linux-centos8-zen2/gcc-10.2.0/qchem-5.4-akfmr7b3t57bfs6qan3padb2wnb2i7cl/config/preferences:
 Processing $rem in /home/theleonzhang/.qchemrc:
 Symmetry turned off for PCM/SM12/SMD calculation
 Core orbitals will be frozen

 Checking the input file for inconsistencies... 	...done.

--------------------------------------------------------------
User input:
--------------------------------------------------------------
$molecule
0 1
C	-0.342737	-0.485419	0.018379
C	0.089063	0.262481	1.117779
C	0.781063	1.460981	0.795079
H	-0.095337	-0.056919	2.154479
C	0.891363	1.652081	-0.594121
S	0.128463	0.330681	-1.468421
C	1.324963	2.402981	1.832979
H	1.112163	2.034381	2.855079
H	0.879263	3.415781	1.744579
H	2.424963	2.523381	1.744579
C	-0.342737	-1.926119	0.018379
H	0.351563	-1.926319	-0.808921
H	-0.970237	-2.629919	-0.508221
H	0.382863	-2.445019	0.627179
H	1.366063	2.474081	-1.143221
$end

$rem
JOBTYPE		SP
EXCHANGE	HF
CORRELATION	pRIMP2
BASIS		cc-pvtz
METHOD		rimp2
AUX_BASIS	rimp2-cc-pvtz
SOLVENT_METHOD	PCM
PURECART	11111
SYMMETRY	false
MEM_TOTAL	110000
SCF_CONVERGENCE = 6
THRESH=10
$end



$solvent
dielectric 4.90
$end
--------------------------------------------------------------
 ----------------------------------------------------------------
             Standard Nuclear Orientation (Angstroms)
    I     Atom           X                Y                Z
 ----------------------------------------------------------------
    1      C      -0.3427370000    -0.4854190000     0.0183790000
    2      C       0.0890630000     0.2624810000     1.1177790000
    3      C       0.7810630000     1.4609810000     0.7950790000
    4      H      -0.0953370000    -0.0569190000     2.1544790000
    5      C       0.8913630000     1.6520810000    -0.5941210000
    6      S       0.1284630000     0.3306810000    -1.4684210000
    7      C       1.3249630000     2.4029810000     1.8329790000
    8      H       1.1121630000     2.0343810000     2.8550790000
    9      H       0.8792630000     3.4157810000     1.7445790000
   10      H       2.4249630000     2.5233810000     1.7445790000
   11      C      -0.3427370000    -1.9261190000     0.0183790000
   12      H       0.3515630000    -1.9263190000    -0.8089210000
   13      H      -0.9702370000    -2.6299190000    -0.5082210000
   14      H       0.3828630000    -2.4450190000     0.6271790000
   15      H       1.3660630000     2.4740810000    -1.1432210000
 ----------------------------------------------------------------
 Nuclear Repulsion Energy =         346.61260960 hartrees
 There are       30 alpha and       30 beta electrons

 Q-Chem warning in module forms1/BasisType.C, line 2236:

 You are not using the predefined 5D/6D in this basis set.

 Requested basis set is cc-pVTZ
 There are 120 shells and 326 basis functions

 Total QAlloc Memory Limit 110000 MB
 Mega-Array Size       188 MB
 MEM_STATIC part       192 MB
 Discretize the solute cavity surface with Lebedev spheres
	Using 110 Lebedev grid points for each H atom
	Using 194 Lebedev grid points for other atoms
	Atomic van der Waals radii will be scaled by 1.20
 Remove points where switching function is < 1.0e-08
 Keep 1047 surface tesserae and discard 1191 interior tesserae
 Molecular Surface Area = 157.939 Angst**2

                       Distance Matrix (Angstroms)
             C (  1)   C (  2)   C (  3)   H (  4)   C (  5)   S (  6)
   C (  2)  1.398029
   C (  3)  2.377953  1.421056
   H (  4)  2.192656  1.100348  2.218122
   C (  5)  2.543043  2.346332  1.406614  3.383646
   S (  6)  1.760291  2.587399  2.612833  3.650442  1.758555
   C (  7)  3.796953  2.573072  1.503472  2.858622  2.577339  4.077411
   H (  8)  4.063618  2.684134  2.163796  2.514445  3.477339  4.750043
   H (  9)  4.437613  3.310679  2.175416  3.630084  2.929215  4.517180
   H ( 10)  4.437658  3.310736  2.175466  3.630135  2.929268  4.517213
   C ( 11)  1.440700  2.486986  3.652210  2.849217  3.834276  2.743310
   H ( 12)  1.800742  2.927785  3.772411  3.532155  3.625254  2.361940
   H ( 13)  2.295636  3.483098  4.636928  3.804701  4.669953  3.300648
   H ( 14)  2.176503  2.767230  3.929833  2.874777  4.305389  3.487229
   H ( 15)  3.609425  3.410869  2.263980  4.406413  1.096602  2.496312
             C (  7)   H (  8)   H (  9)   H ( 10)   C ( 11)   H ( 12)
   H (  8)  1.107176
   H (  9)  1.110057  1.787657
   H ( 10)  1.110095  1.787673  1.784815
   C ( 11)  4.981476  5.084207  5.745341  5.517063
   H ( 12)  5.164299  5.448904  5.944482  5.533460  1.080036
   H ( 13)  6.006600  6.115870  6.711650  6.569550  1.079999  1.527295
   H ( 14)  5.083759  5.055734  5.986984  5.486689  1.079995  1.527224
   H ( 15)  2.977333  4.030410  3.076225  3.076213  4.861180  4.528188
             H ( 13)   H ( 14)
   H ( 14)  1.776007
   H ( 15)  5.649101  5.319638
 
 Requested basis set is rimp2-cc-pVTZ
 There are 250 shells and 848 basis functions
 A cutoff of  1.0D-10 yielded   6222 shell pairs
 There are     45628 function pairs (     58682 Cartesian)
 Smallest overlap matrix eigenvalue = 1.14E-04

 Scale SEOQF with 1.000000e-01/1.000000e-01/1.000000e-01

 Standard Electronic Orientation quadrupole field applied
 Nucleus-field energy     =     0.0000000011 hartrees
 Guess from superposition of atomic densities
 Warning:  Energy on first SCF cycle will be non-variational
 SAD guess density has 60.000000 electrons

 -----------------------------------------------------------------------
  General SCF calculation program by
  Eric Jon Sundstrom, Paul Horn, Yuezhi Mao, Dmitri Zuev, Alec White,
  David Stuck, Shaama M.S., Shane Yost, Joonho Lee, David Small,
  Daniel Levine, Susi Lehtola, Hugh Burton, Evgeny Epifanovsky,
  Bang C. Huynh
 -----------------------------------------------------------------------
 Hartree-Fock
 A restricted SCF calculation will be
 performed using DIIS
 SCF converges when DIIS error is below 1.0e-06
 ---------------------------------------
  Cycle       Energy         DIIS error
 ---------------------------------------
    1    -632.1380159533      2.93e-02  
    2    -629.3241070000      1.93e-03  
    3    -629.3944992663      6.68e-04  
    4    -629.4018986886      3.38e-04  
    5    -629.4039270380      6.47e-05  
    6    -629.4040666170      2.64e-05  
    7    -629.4041031626      1.20e-05  
    8    -629.4041135458      5.08e-06  
    9    -629.4041151465      1.83e-06  
   10    -629.4041153552      6.07e-07  Convergence criterion met
 ---------------------------------------
 SCF time:   CPU 145.65s  wall 146.00s 

************** Final PCM Free Energy Summary **************
 G_electrostatic  =      -0.00507586 hartree =      -3.18515237 kcal/mol
 G_cavitation     =       0.00000000 hartree =       0.00000000 kcal/mol
 G_dispersion     =       0.00000000 hartree =       0.00000000 kcal/mol
 G_repulsion      =       0.00000000 hartree =       0.00000000 kcal/mol
 --------------------------------------------------
 Non-electrostatic Free Energy =       0.00000000 hartree =       0.00000000 kcal/mol
 Total                         =      -0.00507586 hartree =      -3.18515237 kcal/mol
 --------------------------------------------------
 SCF Energy (H0 + V/2)                       =    -629.40411536 
 Solute Internal Energy (H0)                 =    -629.39903949 
 Total Free Energy (H0 + V/2 + non-elec)     =    -629.40411536 hartree
                                             = -394957.04347177 kcal/mol
***********************************************************

 SCF   energy in the final basis set =     -629.4041153552
 Total energy in the final basis set =     -629.4041153552


 --------------------------------------------------------------
  Generalized many-body perturbation theory program
  by Joonho Lee, Fazle Rob, Xintian Feng, Evgeny Epifanovsky

 No regularization used 
 (reg. param. = 0.0000e+00)
  (P|Q)^-1/2 Time:  CPU 0.51 s  wall 0.51 s

 In RI-MP2 calculation: 
 # of frozen core orbitals: 11

 Components of the RIMP2 correlation energy:
        aaaa    correlation energy =        -0.1459377023 a.u.
        abab    correlation energy =        -0.8885461418 a.u.
        bbbb    correlation energy =        -0.1459377023 a.u.
        non-Brillouin singles      =        -0.0000000000 a.u.
        total same-spin energy     =        -0.2918754046 a.u.
        total opposite-spin energy =        -0.8885461418 a.u.

 Total  RIMP2   correlation energy =        -1.1804215464 a.u.
        RIMP2         total energy =      -630.5845369016 a.u.

 RI-MP2 Energy Time:  CPU 12.61 s  wall 12.64 s
 
 --------------------------------------------------------------
 
                    Orbital Energies (a.u.)
 --------------------------------------------------------------
 
 Alpha MOs
 -- Occupied --
-91.9750 -11.2738 -11.2597 -11.2471 -11.2329 -11.2272 -11.2150  -8.9756
 -6.6566  -6.6559  -6.6554  -1.1643  -1.0561  -0.9948  -0.9441  -0.8805
 -0.7483  -0.7205  -0.6459  -0.5903  -0.5783  -0.5654  -0.5510  -0.5481
 -0.5100  -0.4878  -0.4627  -0.4460  -0.3388  -0.2957
 -- Virtual --
  0.0921   0.1448   0.1541   0.1752   0.1874   0.1895   0.2040   0.2265
  0.2312   0.2460   0.2529   0.2558   0.2915   0.3220   0.3462   0.3501
  0.3751   0.4036   0.4104   0.4244   0.4370   0.4576   0.4679   0.4752
  0.4890   0.4907   0.5167   0.5332   0.5423   0.5555   0.5667   0.5853
  0.5946   0.6022   0.6078   0.6155   0.6273   0.6358   0.6435   0.6499
  0.6571   0.6605   0.6879   0.7085   0.7183   0.7422   0.7664   0.7902
  0.8029   0.8147   0.8359   0.8591   0.8693   0.8878   0.8957   0.9420
  0.9469   0.9668   0.9966   1.0210   1.0250   1.0496   1.0642   1.0725
  1.0846   1.0953   1.1208   1.1427   1.1704   1.1859   1.2062   1.2124
  1.2206   1.2325   1.2476   1.2651   1.2720   1.3001   1.3019   1.3274
  1.3564   1.3904   1.4034   1.4114   1.4235   1.4356   1.4468   1.4720
  1.4931   1.4981   1.5080   1.5266   1.5463   1.5593   1.5740   1.5763
  1.5863   1.6349   1.6502   1.6720   1.6821   1.7013   1.7117   1.7390
  1.7547   1.7812   1.7934   1.8357   1.8938   1.9165   1.9492   1.9590
  1.9798   2.0450   2.1166   2.1278   2.1686   2.1897   2.2014   2.2084
  2.2670   2.2815   2.3649   2.4217   2.4572   2.4793   2.5193   2.5449
  2.5667   2.5784   2.6474   2.6567   2.6696   2.6774   2.7114   2.7195
  2.7490   2.7542   2.7853   2.7967   2.8122   2.8401   2.8536   2.8947
  2.9147   2.9235   2.9640   2.9731   3.0180   3.0361   3.0548   3.0647
  3.0965   3.1117   3.1131   3.1402   3.1619   3.1621   3.1809   3.1944
  3.2199   3.2473   3.2609   3.2746   3.2911   3.3027   3.3247   3.3358
  3.3425   3.3562   3.3709   3.3890   3.3931   3.4185   3.4270   3.4305
  3.4425   3.4629   3.4836   3.4941   3.5146   3.5314   3.5347   3.5689
  3.5860   3.5987   3.6099   3.6195   3.6419   3.6608   3.6664   3.6833
  3.7092   3.7214   3.7320   3.7577   3.7600   3.7761   3.7817   3.7969
  3.8110   3.8276   3.8729   3.8783   3.8897   3.9095   3.9286   3.9516
  3.9700   3.9955   4.0161   4.0270   4.0417   4.0488   4.0961   4.1059
  4.1362   4.1548   4.1776   4.1844   4.2205   4.2399   4.2447   4.2669
  4.2814   4.2907   4.3184   4.3418   4.3468   4.3636   4.3871   4.4011
  4.4070   4.4221   4.4595   4.4716   4.4801   4.5249   4.5603   4.5846
  4.6010   4.6283   4.6396   4.6610   4.7097   4.7325   4.7480   4.7801
  4.7903   4.8127   4.8584   4.8855   4.9273   4.9490   5.0642   5.0936
  5.1088   5.1188   5.1813   5.1876   5.2180   5.2592   5.2859   5.3209
  5.3686   5.3975   5.4208   5.4440   5.4828   5.4912   5.5481   5.5629
  5.5914   5.6222   5.6231   5.6540   5.6998   5.8088   5.8362   5.8565
  5.9172   5.9498   6.0680   6.1261   6.2279   6.2412   6.2848   6.3601
  6.4474   6.5006   9.2650  11.4019  12.8614  13.6222  14.1877  14.4648
 --------------------------------------------------------------
 
          Ground-State Mulliken Net Atomic Charges

     Atom                 Charge (a.u.)
  ----------------------------------------
      1 C                     0.037160
      2 C                    -0.286458
      3 C                     0.050074
      4 H                     0.179638
      5 C                    -0.251129
      6 S                    -0.005593
      7 C                    -0.270467
      8 H                     0.101606
      9 H                     0.107667
     10 H                     0.106379
     11 C                    -0.376263
     12 H                     0.133412
     13 H                     0.142774
     14 H                     0.137616
     15 H                     0.193587
  ----------------------------------------
  Sum of atomic charges =     0.000000

 -----------------------------------------------------------------
                    Cartesian Multipole Moments
 -----------------------------------------------------------------
    Charge (ESU x 10^10)
                -0.0000
    Dipole Moment (Debye)
         X       1.2673      Y      -0.1562      Z       1.0579
       Tot       1.6582
    Quadrupole Moments (Debye-Ang)
        XX     -52.2648     XY       3.0150     YY     -44.6994
        XZ       0.4809     YZ       1.3261     ZZ     -48.5602
    Octopole Moments (Debye-Ang^2)
       XXX     -52.7761    XXY     -21.6459    XYY      -8.8679
       YYY     -69.8236    XXZ      -2.7181    XYZ      -2.9587
       YYZ      -6.5296    XZZ     -15.3278    YZZ     -20.5318
       ZZZ       2.3278
    Hexadecapole Moments (Debye-Ang^3)
      XXXX    -219.2201   XXXY    -135.4208   XXYY    -147.5660
      XYYY    -124.3979   YYYY    -680.8918   XXXZ     -47.7631
      XXYZ     -29.3934   XYYZ     -16.4683   YYYZ     -84.1997
      XXZZ    -120.0140   XYZZ     -37.9297   YYZZ    -192.9238
      XZZZ     -52.4609   YZZZ     -89.1811   ZZZZ    -482.4818
 -----------------------------------------------------------------
 Total job time:  159.20s(wall), 158.63s(cpu) 
 Sun Jul 10 10:49:11 2022

        *************************************************************
        *                                                           *
        *  Thank you very much for using Q-Chem.  Have a nice day.  *
        *                                                           *
        *************************************************************


remove work dirs ./qchem2192893.0 -- ./qchem2192893.-1
rm -rf ./qchem2192893
You are running Q-Chem version: 5.4.0

#
# job setting
#
local host:  exp-2-07
current dir: /expanse/lustre/scratch/theleonzhang/temp_project/Hydrogenated_Impropers_Test
input file:  Methylthiophene_Phi_30_Theta_310_Methylthiophene_Hydrogenated_Improper_Alternate.qcin
output file: 
nprocs     : 0
nthreads   : 1
#
# qchem installation setting
#
QC:          /cm/shared/apps/spack/cpu/opt/spack/linux-centos8-zen2/gcc-10.2.0/qchem-5.4-akfmr7b3t57bfs6qan3padb2wnb2i7cl
QCAUX:       /cm/shared/apps/spack/cpu/opt/spack/linux-centos8-zen2/gcc-10.2.0/qchem-5.4-akfmr7b3t57bfs6qan3padb2wnb2i7cl/qcaux
QCPROG:      /cm/shared/apps/spack/cpu/opt/spack/linux-centos8-zen2/gcc-10.2.0/qchem-5.4-akfmr7b3t57bfs6qan3padb2wnb2i7cl/exe/qcprog.exe_s
QCPROG_S:    /cm/shared/apps/spack/cpu/opt/spack/linux-centos8-zen2/gcc-10.2.0/qchem-5.4-akfmr7b3t57bfs6qan3padb2wnb2i7cl/exe/qcprog.exe_s
PARALLEL:    -DSERIAL
QCMPI:       mpich
#
# qchem directory setting
#
qcrun:       qchem1033315
QCSCRATCH:   .
QCLOCALSCR:  
QCTMPDIR:    .
QCFILEPREF:  ./qchem1033315
QCSAVEDIR:   
workdirs:    ./qchem1033315
workdir0:    ./qchem1033315
partmpdirs =  
#
# parallel setting
#
QCRSH:           ssh
QCMPI:           mpich
QCMPIRUN:        /cm/shared/apps/spack/cpu/opt/spack/linux-centos8-zen2/gcc-10.2.0/qchem-5.4-akfmr7b3t57bfs6qan3padb2wnb2i7cl/bin/mpi/mpirun_qchem
QCMACHINEFILE:   ./qchem1033315/hostfile

#
# env setting
#
exported envs:   QC QCAUX QCSCRATCH QCRUNNAME QCFILEPREF QCPROG QCPROG_S GUIFILE

Running Job 1 of 1 Methylthiophene_Phi_30_Theta_310_Methylthiophene_Hydrogenated_Improper_Alternate.qcin
qchem Methylthiophene_Phi_30_Theta_310_Methylthiophene_Hydrogenated_Improper_Alternate.qcin_1033315.0 ./qchem1033315/ 0
/cm/shared/apps/spack/cpu/opt/spack/linux-centos8-zen2/gcc-10.2.0/qchem-5.4-akfmr7b3t57bfs6qan3padb2wnb2i7cl/exe/qcprog.exe_s Methylthiophene_Phi_30_Theta_310_Methylthiophene_Hydrogenated_Improper_Alternate.qcin_1033315.0 ./qchem1033315/
                  Welcome to Q-Chem
     A Quantum Leap Into The Future Of Chemistry


 Q-Chem 5.4, Q-Chem, Inc., Pleasanton, CA (2021)

 License issued to: University of California, San Diego (site)

 E. Epifanovsky,  A. T. B. Gilbert,  Xintian Feng,  Joonho Lee,  Yuezhi Mao,  
 N. Mardirossian,  P. Pokhilko,  A. White,  M. Wormit,  M. P. Coons,  
 A. L. Dempwolff,  Zhengting Gan,  D. Hait,  P. R. Horn,  L. D. Jacobson,  
 I. Kaliman,  J. Kussmann,  A. W. Lange,  Ka Un Lao,  D. S. Levine,  Jie Liu,  
 S. C. McKenzie,  A. F. Morrison,  K. Nanda,  F. Plasser,  D. R. Rehn,  
 M. L. Vidal,  Zhi-Qiang You,  Ying Zhu,  B. Alam,  B. Albrecht,  
 A. Aldossary,  E. Alguire,  J. H. Andersen,  D. Barton,  K. Begam,  A. Behn,  
 Y. A. Bernard,  E. J. Berquist,  H. Burton,  A. Carreras,  K. Carter-Fenk,  
 R. Chakraborty,  A. D. Chien,  K. D. Closser,  V. Cofer-Shabica,  
 S. Dasgupta,  Jia Deng,  M. de Wergifosse,  M. Diedenhofen,  Hainam Do,  
 S. Ehlert,  Po-Tung Fang,  S. Fatehi,  Qingguo Feng,  J. Gayvert,  
 Qinghui Ge,  G. Gidofalvi,  M. Goldey,  J. Gomes,  C. Gonzalez-Espinoza,  
 S. Gulania,  A. Gunina,  M. W. D. Hanson-Heine,  P. H. P. Harbach,  
 A. W. Hauser,  M. F. Herbst,  M. Hernandez Vera,  M. Hodecker,  
 Z. C. Holden,  S. Houck,  Xunkun Huang,  Kerwin Hui,  B. C. Huynh,  
 M. Ivanov,  Hyunjun Ji,  Hanjie Jiang,  B. Kaduk,  S. Kaehler,  
 K. Khistyaev,  Jaehoon Kim,  P. Klunzinger,  Z. Koczor-Benda,  
 Joong Hoon Koh,  D. Kosenkov,  L. Koulias,  T. Kowalczyk,  C. M. Krauter,  
 K. Kue,  A. Kunitsa,  T. Kus,  A. Landau,  K. V. Lawler,  D. Lefrancois,  
 S. Lehtola,  Rain Li,  Yi-Pei Li,  Jiashu Liang,  M. Liebenthal,  
 Hung-Hsuan Lin,  You-Sheng Lin,  Fenglai Liu,  Kuan-Yu Liu,  
 M. Loipersberger,  A. Luenser,  A. Manjanath,  P. Manohar,  E. Mansoor,  
 S. F. Manzer,  Shan-Ping Mao,  A. V. Marenich,  T. Markovich,  S. Mason,  
 S. A. Maurer,  P. F. McLaughlin,  M. F. S. J. Menger,  J.-M. Mewes,  
 S. A. Mewes,  P. Morgante,  J. W. Mullinax,  T. S. Nguyen-Beck,  
 K. J. Oosterbaan,  G. Paran,  Alexander C. Paul,  Suranjan K. Paul,  
 F. Pavosevic,  Zheng Pei,  S. Prager,  E. I. Proynov,  E. Ramos,  B. Rana,  
 A. E. Rask,  A. Rettig,  R. M. Richard,  F. Rob,  E. Rossomme,  T. Scheele,  
 M. Scheurer,  M. Schneider,  N. Sergueev,  S. M. Sharada,  W. Skomorowski,  
 D. W. Small,  C. J. Stein,  Yu-Chuan Su,  E. J. Sundstrom,  Zhen Tao,  
 J. Thirman,  T. Tsuchimochi,  N. M. Tubman,  S. P. Veccham,  O. Vydrov,  
 J. Wenzel,  J. Witte,  A. Yamada,  Kun Yao,  S. Yeganeh,  S. R. Yost,  
 A. Zech,  Igor Ying Zhang,  Xing Zhang,  Yu Zhang,  D. Zuev,  
 A. Aspuru-Guzik,  A. T. Bell,  N. A. Besley,  K. B. Bravaya,  B. R. Brooks,  
 D. Casanova,  Jeng-Da Chai,  S. Coriani,  C. J. Cramer,  
 A. E. DePrince, III,  R. A. DiStasio Jr.,  A. Dreuw,  B. D. Dunietz,  
 T. R. Furlani,  W. A. Goddard III,  S. Grimme,  S. Hammes-Schiffer,  
 T. Head-Gordon,  W. J. Hehre,  Chao-Ping Hsu,  T.-C. Jagau,  Yousung Jung,  
 A. Klamt,  Jing Kong,  D. S. Lambrecht,  WanZhen Liang,  N. J. Mayhall,  
 C. W. McCurdy,  J. B. Neaton,  C. Ochsenfeld,  J. A. Parkhill,  R. Peverati,  
 V. A. Rassolov,  Yihan Shao,  L. V. Slipchenko,  T. Stauch,  R. P. Steele,  
 J. E. Subotnik,  A. J. W. Thom,  A. Tkatchenko,  D. G. Truhlar,  
 T. Van Voorhis,  T. A. Wesolowski,  K. B. Whaley,  H. L. Woodcock III,  
 P. M. Zimmerman,  S. Faraji,  P. M. W. Gill,  M. Head-Gordon,  
 J. M. Herbert,  A. I. Krylov

 Contributors to earlier versions of Q-Chem not listed above: 
 R. D. Adamson,  B. Austin,  R. Baer,  J. Baker,  G. J. O. Beran,  
 K. Brandhorst,  S. T. Brown,  E. F. C. Byrd,  A. K. Chakraborty,  
 G. K. L. Chan,  Chun-Min Chang,  Yunqing Chen,  C.-L. Cheng,  
 Siu Hung Chien,  D. M. Chipman,  D. L. Crittenden,  H. Dachsel,  
 R. J. Doerksen,  A. D. Dutoi,  R. G. Edgar,  J. Fosso-Tande,  
 L. Fusti-Molnar,  D. Ghosh,  A. Ghysels,  A. Golubeva-Zadorozhnaya,  
 J. Gonthier,  M. S. Gordon,  S. R. Gwaltney,  G. Hawkins,  J. E. Herr,  
 A. Heyden,  S. Hirata,  E. G. Hohenstein,  G. Kedziora,  F. J. Keil,  
 C. Kelley,  Jihan Kim,  R. A. King,  R. Z. Khaliullin,  P. P. Korambath,  
 W. Kurlancheek,  A. Laurent,  A. M. Lee,  M. S. Lee,  S. V. Levchenko,  
 Ching Yeh Lin,  D. Liotard,  E. Livshits,  R. C. Lochan,  I. Lotan,  
 L. A. Martinez-Martinez,  P. E. Maslen,  N. Nair,  D. P. O'Neill,  
 D. Neuhauser,  E. Neuscamman,  C. M. Oana,  R. Olivares-Amaya,  R. Olson,  
 T. M. Perrine,  B. Peters,  P. A. Pieniazek,  A. Prociuk,  Y. M. Rhee,  
 J. Ritchie,  M. A. Rohrdanz,  E. Rosta,  N. J. Russ,  H. F. Schaefer III,  
 M. W. Schmidt,  N. E. Schultz,  S. Sharma,  N. Shenvi,  C. D. Sherrill,  
 A. C. Simmonett,  A. Sodt,  T. Stein,  D. Stuck,  K. S. Thanthiriwatte,  
 V. Vanovschi,  L. Vogt,  Tao Wang,  A. Warshel,  M. A. Watson,  
 C. F. Williams,  Q. Wu,  X. Xu,  Jun Yang,  W. Zhang,  Yan Zhao

 Please cite Q-Chem as follows:
 Y. Shao et al., Mol. Phys. 113, 184-215 (2015)
 DOI: 10.1080/00268976.2014.952696

 Q-Chem 5.4.0 for Intel X86 EM64T Linux

 Parts of Q-Chem use Armadillo 9.800.1 (Horizon Scraper).
 http://arma.sourceforge.net/

 Q-Chem begins on Sun Jul 10 11:27:51 2022  

 Host: 
0

     Scratch files written to ./qchem1033315//
 May1621 |scratch|qcdevops|jenkins|workspace|build_RNUM    
 Processing $rem in /cm/shared/apps/spack/cpu/opt/spack/linux-centos8-zen2/gcc-10.2.0/qchem-5.4-akfmr7b3t57bfs6qan3padb2wnb2i7cl/config/preferences:
 Processing $rem in /home/theleonzhang/.qchemrc:
 Symmetry turned off for PCM/SM12/SMD calculation
 Core orbitals will be frozen

 Checking the input file for inconsistencies... 	...done.

--------------------------------------------------------------
User input:
--------------------------------------------------------------
$molecule
0 1
C	-0.342737	-0.485419	0.018379
C	0.089063	0.262481	1.117779
C	0.781063	1.460981	0.795079
H	-0.095337	-0.056919	2.154479
C	0.891363	1.652081	-0.594121
S	0.128463	0.330681	-1.468421
C	1.324963	2.402981	1.832979
H	1.112163	2.034381	2.855079
H	0.879263	3.415781	1.744579
H	2.424963	2.523381	1.744579
C	-0.342737	-1.926119	0.018379
H	0.351563	-1.926319	-0.808921
H	-0.970237	-2.629919	-0.508221
H	0.382863	-2.445019	0.627179
H	1.366063	2.474081	-1.143221
$end

$rem
JOBTYPE		SP
EXCHANGE	HF
CORRELATION	pRIMP2
BASIS		cc-pvtz
METHOD		rimp2
AUX_BASIS	rimp2-cc-pvtz
SOLVENT_METHOD	PCM
PURECART	11111
SYMMETRY	false
MEM_TOTAL	110000
SCF_CONVERGENCE = 6
THRESH=10
$end



$solvent
dielectric 4.90
$end
--------------------------------------------------------------
 ----------------------------------------------------------------
             Standard Nuclear Orientation (Angstroms)
    I     Atom           X                Y                Z
 ----------------------------------------------------------------
    1      C      -0.3427370000    -0.4854190000     0.0183790000
    2      C       0.0890630000     0.2624810000     1.1177790000
    3      C       0.7810630000     1.4609810000     0.7950790000
    4      H      -0.0953370000    -0.0569190000     2.1544790000
    5      C       0.8913630000     1.6520810000    -0.5941210000
    6      S       0.1284630000     0.3306810000    -1.4684210000
    7      C       1.3249630000     2.4029810000     1.8329790000
    8      H       1.1121630000     2.0343810000     2.8550790000
    9      H       0.8792630000     3.4157810000     1.7445790000
   10      H       2.4249630000     2.5233810000     1.7445790000
   11      C      -0.3427370000    -1.9261190000     0.0183790000
   12      H       0.3515630000    -1.9263190000    -0.8089210000
   13      H      -0.9702370000    -2.6299190000    -0.5082210000
   14      H       0.3828630000    -2.4450190000     0.6271790000
   15      H       1.3660630000     2.4740810000    -1.1432210000
 ----------------------------------------------------------------
 Nuclear Repulsion Energy =         346.61260960 hartrees
 There are       30 alpha and       30 beta electrons

 Q-Chem warning in module forms1/BasisType.C, line 2236:

 You are not using the predefined 5D/6D in this basis set.

 Requested basis set is cc-pVTZ
 There are 120 shells and 326 basis functions

 Total QAlloc Memory Limit 110000 MB
 Mega-Array Size       188 MB
 MEM_STATIC part       192 MB
 Discretize the solute cavity surface with Lebedev spheres
	Using 110 Lebedev grid points for each H atom
	Using 194 Lebedev grid points for other atoms
	Atomic van der Waals radii will be scaled by 1.20
 Remove points where switching function is < 1.0e-08
 Keep 1047 surface tesserae and discard 1191 interior tesserae
 Molecular Surface Area = 157.939 Angst**2

                       Distance Matrix (Angstroms)
             C (  1)   C (  2)   C (  3)   H (  4)   C (  5)   S (  6)
   C (  2)  1.398029
   C (  3)  2.377953  1.421056
   H (  4)  2.192656  1.100348  2.218122
   C (  5)  2.543043  2.346332  1.406614  3.383646
   S (  6)  1.760291  2.587399  2.612833  3.650442  1.758555
   C (  7)  3.796953  2.573072  1.503472  2.858622  2.577339  4.077411
   H (  8)  4.063618  2.684134  2.163796  2.514445  3.477339  4.750043
   H (  9)  4.437613  3.310679  2.175416  3.630084  2.929215  4.517180
   H ( 10)  4.437658  3.310736  2.175466  3.630135  2.929268  4.517213
   C ( 11)  1.440700  2.486986  3.652210  2.849217  3.834276  2.743310
   H ( 12)  1.800742  2.927785  3.772411  3.532155  3.625254  2.361940
   H ( 13)  2.295636  3.483098  4.636928  3.804701  4.669953  3.300648
   H ( 14)  2.176503  2.767230  3.929833  2.874777  4.305389  3.487229
   H ( 15)  3.609425  3.410869  2.263980  4.406413  1.096602  2.496312
             C (  7)   H (  8)   H (  9)   H ( 10)   C ( 11)   H ( 12)
   H (  8)  1.107176
   H (  9)  1.110057  1.787657
   H ( 10)  1.110095  1.787673  1.784815
   C ( 11)  4.981476  5.084207  5.745341  5.517063
   H ( 12)  5.164299  5.448904  5.944482  5.533460  1.080036
   H ( 13)  6.006600  6.115870  6.711650  6.569550  1.079999  1.527295
   H ( 14)  5.083759  5.055734  5.986984  5.486689  1.079995  1.527224
   H ( 15)  2.977333  4.030410  3.076225  3.076213  4.861180  4.528188
             H ( 13)   H ( 14)
   H ( 14)  1.776007
   H ( 15)  5.649101  5.319638
 
 Requested basis set is rimp2-cc-pVTZ
 There are 250 shells and 848 basis functions
 A cutoff of  1.0D-10 yielded   6222 shell pairs
 There are     45628 function pairs (     58682 Cartesian)
 Smallest overlap matrix eigenvalue = 1.14E-04

 Scale SEOQF with 1.000000e-01/1.000000e-01/1.000000e-01

 Standard Electronic Orientation quadrupole field applied
 Nucleus-field energy     =     0.0000000011 hartrees
 Guess from superposition of atomic densities
 Warning:  Energy on first SCF cycle will be non-variational
 SAD guess density has 60.000000 electrons

 -----------------------------------------------------------------------
  General SCF calculation program by
  Eric Jon Sundstrom, Paul Horn, Yuezhi Mao, Dmitri Zuev, Alec White,
  David Stuck, Shaama M.S., Shane Yost, Joonho Lee, David Small,
  Daniel Levine, Susi Lehtola, Hugh Burton, Evgeny Epifanovsky,
  Bang C. Huynh
 -----------------------------------------------------------------------
 Hartree-Fock
 A restricted SCF calculation will be
 performed using DIIS
 SCF converges when DIIS error is below 1.0e-06
 ---------------------------------------
  Cycle       Energy         DIIS error
 ---------------------------------------
    1    -632.1380159533      2.93e-02  
    2    -629.3241070000      1.93e-03  
    3    -629.3944992663      6.68e-04  
    4    -629.4018986886      3.38e-04  
    5    -629.4039270380      6.47e-05  
    6    -629.4040666170      2.64e-05  
    7    -629.4041031626      1.20e-05  
    8    -629.4041135458      5.08e-06  
    9    -629.4041151465      1.83e-06  
   10    -629.4041153552      6.07e-07  Convergence criterion met
 ---------------------------------------
 SCF time:   CPU 145.65s  wall 146.00s 

************** Final PCM Free Energy Summary **************
 G_electrostatic  =      -0.00507586 hartree =      -3.18515237 kcal/mol
 G_cavitation     =       0.00000000 hartree =       0.00000000 kcal/mol
 G_dispersion     =       0.00000000 hartree =       0.00000000 kcal/mol
 G_repulsion      =       0.00000000 hartree =       0.00000000 kcal/mol
 --------------------------------------------------
 Non-electrostatic Free Energy =       0.00000000 hartree =       0.00000000 kcal/mol
 Total                         =      -0.00507586 hartree =      -3.18515237 kcal/mol
 --------------------------------------------------
 SCF Energy (H0 + V/2)                       =    -629.40411536 
 Solute Internal Energy (H0)                 =    -629.39903949 
 Total Free Energy (H0 + V/2 + non-elec)     =    -629.40411536 hartree
                                             = -394957.04347177 kcal/mol
***********************************************************

 SCF   energy in the final basis set =     -629.4041153552
 Total energy in the final basis set =     -629.4041153552


 --------------------------------------------------------------
  Generalized many-body perturbation theory program
  by Joonho Lee, Fazle Rob, Xintian Feng, Evgeny Epifanovsky

 No regularization used 
 (reg. param. = 0.0000e+00)
  (P|Q)^-1/2 Time:  CPU 0.48 s  wall 0.48 s

 In RI-MP2 calculation: 
 # of frozen core orbitals: 11

 Components of the RIMP2 correlation energy:
        aaaa    correlation energy =        -0.1459377023 a.u.
        abab    correlation energy =        -0.8885461418 a.u.
        bbbb    correlation energy =        -0.1459377023 a.u.
        non-Brillouin singles      =        -0.0000000000 a.u.
        total same-spin energy     =        -0.2918754046 a.u.
        total opposite-spin energy =        -0.8885461418 a.u.

 Total  RIMP2   correlation energy =        -1.1804215464 a.u.
        RIMP2         total energy =      -630.5845369016 a.u.

 RI-MP2 Energy Time:  CPU 11.06 s  wall 11.10 s
 
 --------------------------------------------------------------
 
                    Orbital Energies (a.u.)
 --------------------------------------------------------------
 
 Alpha MOs
 -- Occupied --
-91.9750 -11.2738 -11.2597 -11.2471 -11.2329 -11.2272 -11.2150  -8.9756
 -6.6566  -6.6559  -6.6554  -1.1643  -1.0561  -0.9948  -0.9441  -0.8805
 -0.7483  -0.7205  -0.6459  -0.5903  -0.5783  -0.5654  -0.5510  -0.5481
 -0.5100  -0.4878  -0.4627  -0.4460  -0.3388  -0.2957
 -- Virtual --
  0.0921   0.1448   0.1541   0.1752   0.1874   0.1895   0.2040   0.2265
  0.2312   0.2460   0.2529   0.2558   0.2915   0.3220   0.3462   0.3501
  0.3751   0.4036   0.4104   0.4244   0.4370   0.4576   0.4679   0.4752
  0.4890   0.4907   0.5167   0.5332   0.5423   0.5555   0.5667   0.5853
  0.5946   0.6022   0.6078   0.6155   0.6273   0.6358   0.6435   0.6499
  0.6571   0.6605   0.6879   0.7085   0.7183   0.7422   0.7664   0.7902
  0.8029   0.8147   0.8359   0.8591   0.8693   0.8878   0.8957   0.9420
  0.9469   0.9668   0.9966   1.0210   1.0250   1.0496   1.0642   1.0725
  1.0846   1.0953   1.1208   1.1427   1.1704   1.1859   1.2062   1.2124
  1.2206   1.2325   1.2476   1.2651   1.2720   1.3001   1.3019   1.3274
  1.3564   1.3904   1.4034   1.4114   1.4235   1.4356   1.4468   1.4720
  1.4931   1.4981   1.5080   1.5266   1.5463   1.5593   1.5740   1.5763
  1.5863   1.6349   1.6502   1.6720   1.6821   1.7013   1.7117   1.7390
  1.7547   1.7812   1.7934   1.8357   1.8938   1.9165   1.9492   1.9590
  1.9798   2.0450   2.1166   2.1278   2.1686   2.1897   2.2014   2.2084
  2.2670   2.2815   2.3649   2.4217   2.4572   2.4793   2.5193   2.5449
  2.5667   2.5784   2.6474   2.6567   2.6696   2.6774   2.7114   2.7195
  2.7490   2.7542   2.7853   2.7967   2.8122   2.8401   2.8536   2.8947
  2.9147   2.9235   2.9640   2.9731   3.0180   3.0361   3.0548   3.0647
  3.0965   3.1117   3.1131   3.1402   3.1619   3.1621   3.1809   3.1944
  3.2199   3.2473   3.2609   3.2746   3.2911   3.3027   3.3247   3.3358
  3.3425   3.3562   3.3709   3.3890   3.3931   3.4185   3.4270   3.4305
  3.4425   3.4629   3.4836   3.4941   3.5146   3.5314   3.5347   3.5689
  3.5860   3.5987   3.6099   3.6195   3.6419   3.6608   3.6664   3.6833
  3.7092   3.7214   3.7320   3.7577   3.7600   3.7761   3.7817   3.7969
  3.8110   3.8276   3.8729   3.8783   3.8897   3.9095   3.9286   3.9516
  3.9700   3.9955   4.0161   4.0270   4.0417   4.0488   4.0961   4.1059
  4.1362   4.1548   4.1776   4.1844   4.2205   4.2399   4.2447   4.2669
  4.2814   4.2907   4.3184   4.3418   4.3468   4.3636   4.3871   4.4011
  4.4070   4.4221   4.4595   4.4716   4.4801   4.5249   4.5603   4.5846
  4.6010   4.6283   4.6396   4.6610   4.7097   4.7325   4.7480   4.7801
  4.7903   4.8127   4.8584   4.8855   4.9273   4.9490   5.0642   5.0936
  5.1088   5.1188   5.1813   5.1876   5.2180   5.2592   5.2859   5.3209
  5.3686   5.3975   5.4208   5.4440   5.4828   5.4912   5.5481   5.5629
  5.5914   5.6222   5.6231   5.6540   5.6998   5.8088   5.8362   5.8565
  5.9172   5.9498   6.0680   6.1261   6.2279   6.2412   6.2848   6.3601
  6.4474   6.5006   9.2650  11.4019  12.8614  13.6222  14.1877  14.4648
 --------------------------------------------------------------
 
          Ground-State Mulliken Net Atomic Charges

     Atom                 Charge (a.u.)
  ----------------------------------------
      1 C                     0.037160
      2 C                    -0.286458
      3 C                     0.050074
      4 H                     0.179638
      5 C                    -0.251129
      6 S                    -0.005593
      7 C                    -0.270467
      8 H                     0.101606
      9 H                     0.107667
     10 H                     0.106379
     11 C                    -0.376263
     12 H                     0.133412
     13 H                     0.142774
     14 H                     0.137616
     15 H                     0.193587
  ----------------------------------------
  Sum of atomic charges =     0.000000

 -----------------------------------------------------------------
                    Cartesian Multipole Moments
 -----------------------------------------------------------------
    Charge (ESU x 10^10)
                -0.0000
    Dipole Moment (Debye)
         X       1.2673      Y      -0.1562      Z       1.0579
       Tot       1.6582
    Quadrupole Moments (Debye-Ang)
        XX     -52.2648     XY       3.0150     YY     -44.6994
        XZ       0.4809     YZ       1.3261     ZZ     -48.5602
    Octopole Moments (Debye-Ang^2)
       XXX     -52.7761    XXY     -21.6459    XYY      -8.8679
       YYY     -69.8236    XXZ      -2.7181    XYZ      -2.9587
       YYZ      -6.5296    XZZ     -15.3278    YZZ     -20.5318
       ZZZ       2.3278
    Hexadecapole Moments (Debye-Ang^3)
      XXXX    -219.2201   XXXY    -135.4208   XXYY    -147.5660
      XYYY    -124.3979   YYYY    -680.8918   XXXZ     -47.7631
      XXYZ     -29.3934   XYYZ     -16.4683   YYYZ     -84.1997
      XXZZ    -120.0140   XYZZ     -37.9297   YYZZ    -192.9238
      XZZZ     -52.4609   YZZZ     -89.1811   ZZZZ    -482.4818
 -----------------------------------------------------------------
 Total job time:  158.83s(wall), 157.07s(cpu) 
 Sun Jul 10 11:30:30 2022

        *************************************************************
        *                                                           *
        *  Thank you very much for using Q-Chem.  Have a nice day.  *
        *                                                           *
        *************************************************************


remove work dirs ./qchem1033315.0 -- ./qchem1033315.-1
rm -rf ./qchem1033315
