You are running Q-Chem version: 5.4.0

#
# job setting
#
local host:  exp-1-46
current dir: /expanse/lustre/scratch/theleonzhang/temp_project/Hydrogenated_Impropers_Test
input file:  Methylthiophene_Phi_5_Theta_260_Methylthiophene_Hydrogenated_Improper.qcin
output file: 
nprocs     : 0
nthreads   : 1
#
# qchem installation setting
#
QC:          /cm/shared/apps/spack/cpu/opt/spack/linux-centos8-zen2/gcc-10.2.0/qchem-5.4-akfmr7b3t57bfs6qan3padb2wnb2i7cl
QCAUX:       /cm/shared/apps/spack/cpu/opt/spack/linux-centos8-zen2/gcc-10.2.0/qchem-5.4-akfmr7b3t57bfs6qan3padb2wnb2i7cl/qcaux
QCPROG:      /cm/shared/apps/spack/cpu/opt/spack/linux-centos8-zen2/gcc-10.2.0/qchem-5.4-akfmr7b3t57bfs6qan3padb2wnb2i7cl/exe/qcprog.exe_s
QCPROG_S:    /cm/shared/apps/spack/cpu/opt/spack/linux-centos8-zen2/gcc-10.2.0/qchem-5.4-akfmr7b3t57bfs6qan3padb2wnb2i7cl/exe/qcprog.exe_s
PARALLEL:    -DSERIAL
QCMPI:       mpich
#
# qchem directory setting
#
qcrun:       qchem2058
QCSCRATCH:   .
QCLOCALSCR:  
QCTMPDIR:    .
QCFILEPREF:  ./qchem2058
QCSAVEDIR:   
workdirs:    ./qchem2058
workdir0:    ./qchem2058
partmpdirs =  
#
# parallel setting
#
QCRSH:           ssh
QCMPI:           mpich
QCMPIRUN:        /cm/shared/apps/spack/cpu/opt/spack/linux-centos8-zen2/gcc-10.2.0/qchem-5.4-akfmr7b3t57bfs6qan3padb2wnb2i7cl/bin/mpi/mpirun_qchem
QCMACHINEFILE:   ./qchem2058/hostfile

#
# env setting
#
exported envs:   QC QCAUX QCSCRATCH QCRUNNAME QCFILEPREF QCPROG QCPROG_S GUIFILE

Running Job 1 of 1 Methylthiophene_Phi_5_Theta_260_Methylthiophene_Hydrogenated_Improper.qcin
qchem Methylthiophene_Phi_5_Theta_260_Methylthiophene_Hydrogenated_Improper.qcin_2058.0 ./qchem2058/ 0
/cm/shared/apps/spack/cpu/opt/spack/linux-centos8-zen2/gcc-10.2.0/qchem-5.4-akfmr7b3t57bfs6qan3padb2wnb2i7cl/exe/qcprog.exe_s Methylthiophene_Phi_5_Theta_260_Methylthiophene_Hydrogenated_Improper.qcin_2058.0 ./qchem2058/
                  Welcome to Q-Chem
     A Quantum Leap Into The Future Of Chemistry


 Q-Chem 5.4, Q-Chem, Inc., Pleasanton, CA (2021)

 License issued to: University of California, San Diego (site)

 E. Epifanovsky,  A. T. B. Gilbert,  Xintian Feng,  Joonho Lee,  Yuezhi Mao,  
 N. Mardirossian,  P. Pokhilko,  A. White,  M. Wormit,  M. P. Coons,  
 A. L. Dempwolff,  Zhengting Gan,  D. Hait,  P. R. Horn,  L. D. Jacobson,  
 I. Kaliman,  J. Kussmann,  A. W. Lange,  Ka Un Lao,  D. S. Levine,  Jie Liu,  
 S. C. McKenzie,  A. F. Morrison,  K. Nanda,  F. Plasser,  D. R. Rehn,  
 M. L. Vidal,  Zhi-Qiang You,  Ying Zhu,  B. Alam,  B. Albrecht,  
 A. Aldossary,  E. Alguire,  J. H. Andersen,  D. Barton,  K. Begam,  A. Behn,  
 Y. A. Bernard,  E. J. Berquist,  H. Burton,  A. Carreras,  K. Carter-Fenk,  
 R. Chakraborty,  A. D. Chien,  K. D. Closser,  V. Cofer-Shabica,  
 S. Dasgupta,  Jia Deng,  M. de Wergifosse,  M. Diedenhofen,  Hainam Do,  
 S. Ehlert,  Po-Tung Fang,  S. Fatehi,  Qingguo Feng,  J. Gayvert,  
 Qinghui Ge,  G. Gidofalvi,  M. Goldey,  J. Gomes,  C. Gonzalez-Espinoza,  
 S. Gulania,  A. Gunina,  M. W. D. Hanson-Heine,  P. H. P. Harbach,  
 A. W. Hauser,  M. F. Herbst,  M. Hernandez Vera,  M. Hodecker,  
 Z. C. Holden,  S. Houck,  Xunkun Huang,  Kerwin Hui,  B. C. Huynh,  
 M. Ivanov,  Hyunjun Ji,  Hanjie Jiang,  B. Kaduk,  S. Kaehler,  
 K. Khistyaev,  Jaehoon Kim,  P. Klunzinger,  Z. Koczor-Benda,  
 Joong Hoon Koh,  D. Kosenkov,  L. Koulias,  T. Kowalczyk,  C. M. Krauter,  
 K. Kue,  A. Kunitsa,  T. Kus,  A. Landau,  K. V. Lawler,  D. Lefrancois,  
 S. Lehtola,  Rain Li,  Yi-Pei Li,  Jiashu Liang,  M. Liebenthal,  
 Hung-Hsuan Lin,  You-Sheng Lin,  Fenglai Liu,  Kuan-Yu Liu,  
 M. Loipersberger,  A. Luenser,  A. Manjanath,  P. Manohar,  E. Mansoor,  
 S. F. Manzer,  Shan-Ping Mao,  A. V. Marenich,  T. Markovich,  S. Mason,  
 S. A. Maurer,  P. F. McLaughlin,  M. F. S. J. Menger,  J.-M. Mewes,  
 S. A. Mewes,  P. Morgante,  J. W. Mullinax,  T. S. Nguyen-Beck,  
 K. J. Oosterbaan,  G. Paran,  Alexander C. Paul,  Suranjan K. Paul,  
 F. Pavosevic,  Zheng Pei,  S. Prager,  E. I. Proynov,  E. Ramos,  B. Rana,  
 A. E. Rask,  A. Rettig,  R. M. Richard,  F. Rob,  E. Rossomme,  T. Scheele,  
 M. Scheurer,  M. Schneider,  N. Sergueev,  S. M. Sharada,  W. Skomorowski,  
 D. W. Small,  C. J. Stein,  Yu-Chuan Su,  E. J. Sundstrom,  Zhen Tao,  
 J. Thirman,  T. Tsuchimochi,  N. M. Tubman,  S. P. Veccham,  O. Vydrov,  
 J. Wenzel,  J. Witte,  A. Yamada,  Kun Yao,  S. Yeganeh,  S. R. Yost,  
 A. Zech,  Igor Ying Zhang,  Xing Zhang,  Yu Zhang,  D. Zuev,  
 A. Aspuru-Guzik,  A. T. Bell,  N. A. Besley,  K. B. Bravaya,  B. R. Brooks,  
 D. Casanova,  Jeng-Da Chai,  S. Coriani,  C. J. Cramer,  
 A. E. DePrince, III,  R. A. DiStasio Jr.,  A. Dreuw,  B. D. Dunietz,  
 T. R. Furlani,  W. A. Goddard III,  S. Grimme,  S. Hammes-Schiffer,  
 T. Head-Gordon,  W. J. Hehre,  Chao-Ping Hsu,  T.-C. Jagau,  Yousung Jung,  
 A. Klamt,  Jing Kong,  D. S. Lambrecht,  WanZhen Liang,  N. J. Mayhall,  
 C. W. McCurdy,  J. B. Neaton,  C. Ochsenfeld,  J. A. Parkhill,  R. Peverati,  
 V. A. Rassolov,  Yihan Shao,  L. V. Slipchenko,  T. Stauch,  R. P. Steele,  
 J. E. Subotnik,  A. J. W. Thom,  A. Tkatchenko,  D. G. Truhlar,  
 T. Van Voorhis,  T. A. Wesolowski,  K. B. Whaley,  H. L. Woodcock III,  
 P. M. Zimmerman,  S. Faraji,  P. M. W. Gill,  M. Head-Gordon,  
 J. M. Herbert,  A. I. Krylov

 Contributors to earlier versions of Q-Chem not listed above: 
 R. D. Adamson,  B. Austin,  R. Baer,  J. Baker,  G. J. O. Beran,  
 K. Brandhorst,  S. T. Brown,  E. F. C. Byrd,  A. K. Chakraborty,  
 G. K. L. Chan,  Chun-Min Chang,  Yunqing Chen,  C.-L. Cheng,  
 Siu Hung Chien,  D. M. Chipman,  D. L. Crittenden,  H. Dachsel,  
 R. J. Doerksen,  A. D. Dutoi,  R. G. Edgar,  J. Fosso-Tande,  
 L. Fusti-Molnar,  D. Ghosh,  A. Ghysels,  A. Golubeva-Zadorozhnaya,  
 J. Gonthier,  M. S. Gordon,  S. R. Gwaltney,  G. Hawkins,  J. E. Herr,  
 A. Heyden,  S. Hirata,  E. G. Hohenstein,  G. Kedziora,  F. J. Keil,  
 C. Kelley,  Jihan Kim,  R. A. King,  R. Z. Khaliullin,  P. P. Korambath,  
 W. Kurlancheek,  A. Laurent,  A. M. Lee,  M. S. Lee,  S. V. Levchenko,  
 Ching Yeh Lin,  D. Liotard,  E. Livshits,  R. C. Lochan,  I. Lotan,  
 L. A. Martinez-Martinez,  P. E. Maslen,  N. Nair,  D. P. O'Neill,  
 D. Neuhauser,  E. Neuscamman,  C. M. Oana,  R. Olivares-Amaya,  R. Olson,  
 T. M. Perrine,  B. Peters,  P. A. Pieniazek,  A. Prociuk,  Y. M. Rhee,  
 J. Ritchie,  M. A. Rohrdanz,  E. Rosta,  N. J. Russ,  H. F. Schaefer III,  
 M. W. Schmidt,  N. E. Schultz,  S. Sharma,  N. Shenvi,  C. D. Sherrill,  
 A. C. Simmonett,  A. Sodt,  T. Stein,  D. Stuck,  K. S. Thanthiriwatte,  
 V. Vanovschi,  L. Vogt,  Tao Wang,  A. Warshel,  M. A. Watson,  
 C. F. Williams,  Q. Wu,  X. Xu,  Jun Yang,  W. Zhang,  Yan Zhao

 Please cite Q-Chem as follows:
 Y. Shao et al., Mol. Phys. 113, 184-215 (2015)
 DOI: 10.1080/00268976.2014.952696

 Q-Chem 5.4.0 for Intel X86 EM64T Linux

 Parts of Q-Chem use Armadillo 9.800.1 (Horizon Scraper).
 http://arma.sourceforge.net/

 Q-Chem begins on Sun Jul 10 09:55:55 2022  

 Host: 
0

     Scratch files written to ./qchem2058//
 May1621 |scratch|qcdevops|jenkins|workspace|build_RNUM    
 Processing $rem in /cm/shared/apps/spack/cpu/opt/spack/linux-centos8-zen2/gcc-10.2.0/qchem-5.4-akfmr7b3t57bfs6qan3padb2wnb2i7cl/config/preferences:
 Processing $rem in /home/theleonzhang/.qchemrc:
 Symmetry turned off for PCM/SM12/SMD calculation
 Core orbitals will be frozen

 Checking the input file for inconsistencies... 	...done.

--------------------------------------------------------------
User input:
--------------------------------------------------------------
$molecule
0 1
C	-0.060553	-0.573729	0.010354
C	0.014747	0.286571	1.109754
C	0.135347	1.665271	0.787054
H	-0.017353	-0.080829	2.146454
C	0.154647	1.885071	-0.602146
S	0.021647	0.365071	-1.476446
C	0.230247	2.748871	1.824954
H	0.193147	2.324771	2.847054
H	-0.601753	3.478371	1.736554
H	1.176247	3.322871	1.736554
C	-0.060553	-2.014429	0.010354
H	0.126847	-2.014129	1.073954
H	-0.867353	-2.718229	0.152554
H	0.872147	-2.533329	-0.154146
H	0.237347	2.830671	-1.151246
$end

$rem
JOBTYPE		SP
EXCHANGE	HF
CORRELATION	pRIMP2
BASIS		cc-pvtz
METHOD		rimp2
AUX_BASIS	rimp2-cc-pvtz
SOLVENT_METHOD	PCM
PURECART	11111
SYMMETRY	false
MEM_TOTAL	110000
SCF_CONVERGENCE = 6
THRESH=10
$end



$solvent
dielectric 4.90
$end
--------------------------------------------------------------
 ----------------------------------------------------------------
             Standard Nuclear Orientation (Angstroms)
    I     Atom           X                Y                Z
 ----------------------------------------------------------------
    1      C      -0.0605530000    -0.5737290000     0.0103540000
    2      C       0.0147470000     0.2865710000     1.1097540000
    3      C       0.1353470000     1.6652710000     0.7870540000
    4      H      -0.0173530000    -0.0808290000     2.1464540000
    5      C       0.1546470000     1.8850710000    -0.6021460000
    6      S       0.0216470000     0.3650710000    -1.4764460000
    7      C       0.2302470000     2.7488710000     1.8249540000
    8      H       0.1931470000     2.3247710000     2.8470540000
    9      H      -0.6017530000     3.4783710000     1.7365540000
   10      H       1.1762470000     3.3228710000     1.7365540000
   11      C      -0.0605530000    -2.0144290000     0.0103540000
   12      H       0.1268470000    -2.0141290000     1.0739540000
   13      H      -0.8673530000    -2.7182290000     0.1525540000
   14      H       0.8721470000    -2.5333290000    -0.1541460000
   15      H       0.2373470000     2.8306710000    -1.1512460000
 ----------------------------------------------------------------
 Nuclear Repulsion Energy =         344.31827935 hartrees
 There are       30 alpha and       30 beta electrons

 Q-Chem warning in module forms1/BasisType.C, line 2236:

 You are not using the predefined 5D/6D in this basis set.

 Requested basis set is cc-pVTZ
 There are 120 shells and 326 basis functions

 Total QAlloc Memory Limit 110000 MB
 Mega-Array Size       188 MB
 MEM_STATIC part       192 MB
 Discretize the solute cavity surface with Lebedev spheres
	Using 110 Lebedev grid points for each H atom
	Using 194 Lebedev grid points for other atoms
	Atomic van der Waals radii will be scaled by 1.20
 Remove points where switching function is < 1.0e-08
 Keep 1061 surface tesserae and discard 1177 interior tesserae
 Molecular Surface Area = 159.016 Angst**2

                       Distance Matrix (Angstroms)
             C (  1)   C (  2)   C (  3)   H (  4)   C (  5)   S (  6)
   C (  2)  1.398022
   C (  3)  2.377974  1.421089
   H (  4)  2.192656  1.100345  2.218141
   C (  5)  2.543062  2.346354  1.406613  3.383659
   S (  6)  1.760306  2.587400  2.612830  3.650445  1.758548
   C (  7)  3.796974  2.573106  1.503473  2.858648  2.577340  4.077408
   H (  8)  4.063562  2.684082  2.163765  2.514371  3.477326  4.749999
   H (  9)  4.437587  3.310670  2.175362  3.630075  2.929209  4.517149
   H ( 10)  4.437672  3.310752  2.175468  3.630134  2.929241  4.517195
   C ( 11)  1.440700  2.551265  3.765877  2.881597  3.953172  2.807018
   H ( 12)  1.800310  2.303708  3.690578  2.215558  4.244272  3.489441
   H ( 13)  2.295654  3.274623  4.541263  3.413798  4.775398  3.598708
   H ( 14)  2.176470  3.206932  4.365429  3.478322  4.498641  3.297355
   H ( 15)  3.609432  3.410882  2.263972  4.406419  1.096590  2.496290
             C (  7)   H (  8)   H (  9)   H ( 10)   C ( 11)   H ( 12)
   H (  8)  1.107215
   H (  9)  1.110049  1.787699
   H ( 10)  1.110048  1.787708  1.784787
   C ( 11)  5.105523  5.190365  5.783037  5.744233
   H ( 12)  4.822952  4.687679  5.580094  5.479402  1.079983
   H ( 13)  5.821583  5.815225  6.401363  6.571168  1.080038  1.527471
   H ( 14)  5.677192  5.750598  6.472068  6.161356  1.079929  1.527505
   H ( 15)  2.977332  4.030421  3.076198  3.076229  4.991298  5.332524
             H ( 13)   H ( 14)
   H ( 14)  1.775982
   H ( 15)  5.806079  5.492693
 
 Requested basis set is rimp2-cc-pVTZ
 There are 250 shells and 848 basis functions
 A cutoff of  1.0D-10 yielded   6194 shell pairs
 There are     45388 function pairs (     58376 Cartesian)
 Smallest overlap matrix eigenvalue = 1.01E-04

 Scale SEOQF with 1.000000e+00/1.000000e-01/1.000000e-01

 Standard Electronic Orientation quadrupole field applied
 Nucleus-field energy     =     0.0000000038 hartrees
 Guess from superposition of atomic densities
 Warning:  Energy on first SCF cycle will be non-variational
 SAD guess density has 60.000000 electrons

 -----------------------------------------------------------------------
  General SCF calculation program by
  Eric Jon Sundstrom, Paul Horn, Yuezhi Mao, Dmitri Zuev, Alec White,
  David Stuck, Shaama M.S., Shane Yost, Joonho Lee, David Small,
  Daniel Levine, Susi Lehtola, Hugh Burton, Evgeny Epifanovsky,
  Bang C. Huynh
 -----------------------------------------------------------------------
 Hartree-Fock
 A restricted SCF calculation will be
 performed using DIIS
 SCF converges when DIIS error is below 1.0e-06
 ---------------------------------------
  Cycle       Energy         DIIS error
 ---------------------------------------
    1    -632.1081771250      2.92e-02  
    2    -629.3463117258      1.91e-03  
    3    -629.4157201395      6.33e-04  
    4    -629.4226514488      3.24e-04  
    5    -629.4244731819      6.18e-05  
    6    -629.4246009012      2.45e-05  
    7    -629.4246321435      1.13e-05  
    8    -629.4246411875      4.80e-06  
    9    -629.4246426040      1.67e-06  
   10    -629.4246427577      4.94e-07  Convergence criterion met
 ---------------------------------------
 SCF time:   CPU 144.66s  wall 146.00s 

************** Final PCM Free Energy Summary **************
 G_electrostatic  =      -0.00547389 hartree =      -3.43492045 kcal/mol
 G_cavitation     =       0.00000000 hartree =       0.00000000 kcal/mol
 G_dispersion     =       0.00000000 hartree =       0.00000000 kcal/mol
 G_repulsion      =       0.00000000 hartree =       0.00000000 kcal/mol
 --------------------------------------------------
 Non-electrostatic Free Energy =       0.00000000 hartree =       0.00000000 kcal/mol
 Total                         =      -0.00547389 hartree =      -3.43492045 kcal/mol
 --------------------------------------------------
 SCF Energy (H0 + V/2)                       =    -629.42464276 
 Solute Internal Energy (H0)                 =    -629.41916886 
 Total Free Energy (H0 + V/2 + non-elec)     =    -629.42464276 hartree
                                             = -394969.92461126 kcal/mol
***********************************************************

 SCF   energy in the final basis set =     -629.4246427577
 Total energy in the final basis set =     -629.4246427577


 --------------------------------------------------------------
  Generalized many-body perturbation theory program
  by Joonho Lee, Fazle Rob, Xintian Feng, Evgeny Epifanovsky

 No regularization used 
 (reg. param. = 0.0000e+00)
  (P|Q)^-1/2 Time:  CPU 0.56 s  wall 0.56 s

 In RI-MP2 calculation: 
 # of frozen core orbitals: 11

 Components of the RIMP2 correlation energy:
        aaaa    correlation energy =        -0.1456334515 a.u.
        abab    correlation energy =        -0.8865857545 a.u.
        bbbb    correlation energy =        -0.1456334515 a.u.
        non-Brillouin singles      =        -0.0000000000 a.u.
        total same-spin energy     =        -0.2912669031 a.u.
        total opposite-spin energy =        -0.8865857545 a.u.

 Total  RIMP2   correlation energy =        -1.1778526576 a.u.
        RIMP2         total energy =      -630.6024954153 a.u.

 RI-MP2 Energy Time:  CPU 14.92 s  wall 14.98 s
 
 --------------------------------------------------------------
 
                    Orbital Energies (a.u.)
 --------------------------------------------------------------
 
 Alpha MOs
 -- Occupied --
-91.9751 -11.2778 -11.2572 -11.2470 -11.2340 -11.2274 -11.2164  -8.9752
 -6.6561  -6.6556  -6.6551  -1.1611  -1.0540  -0.9997  -0.9397  -0.8844
 -0.7423  -0.7242  -0.6489  -0.5916  -0.5775  -0.5659  -0.5599  -0.5420
 -0.5101  -0.4853  -0.4680  -0.4381  -0.3379  -0.3038
 -- Virtual --
  0.1042   0.1445   0.1506   0.1768   0.1876   0.1908   0.2000   0.2280
  0.2347   0.2451   0.2476   0.2703   0.3064   0.3173   0.3446   0.3593
  0.3722   0.3957   0.4120   0.4126   0.4393   0.4635   0.4696   0.4839
  0.4927   0.5014   0.5216   0.5276   0.5385   0.5449   0.5705   0.5906
  0.6025   0.6046   0.6223   0.6364   0.6398   0.6433   0.6473   0.6492
  0.6626   0.6726   0.6831   0.6958   0.7340   0.7493   0.7633   0.7765
  0.8014   0.8109   0.8438   0.8636   0.8690   0.8819   0.9121   0.9355
  0.9518   0.9680   0.9970   1.0133   1.0353   1.0486   1.0642   1.0765
  1.0797   1.0900   1.1235   1.1364   1.1635   1.1685   1.1942   1.2029
  1.2142   1.2316   1.2552   1.2574   1.2652   1.2865   1.3061   1.3398
  1.3466   1.3634   1.3909   1.4163   1.4318   1.4514   1.4688   1.4803
  1.4935   1.5115   1.5322   1.5358   1.5526   1.5649   1.5750   1.5806
  1.5979   1.6322   1.6505   1.6655   1.6839   1.7038   1.7143   1.7510
  1.7768   1.7934   1.8064   1.8233   1.8981   1.9124   1.9236   1.9517
  1.9948   2.0437   2.0975   2.1375   2.1857   2.1940   2.2181   2.2235
  2.2592   2.3021   2.3522   2.4137   2.4613   2.5045   2.5238   2.5694
  2.5757   2.6119   2.6300   2.6476   2.6681   2.6920   2.7134   2.7270
  2.7401   2.7556   2.7737   2.8019   2.8381   2.8421   2.8579   2.8770
  2.9020   2.9094   2.9422   2.9598   2.9829   3.0038   3.0399   3.0570
  3.0858   3.1129   3.1204   3.1504   3.1527   3.1596   3.1956   3.2030
  3.2277   3.2504   3.2575   3.2717   3.2783   3.3069   3.3238   3.3334
  3.3409   3.3653   3.3714   3.3770   3.3976   3.4214   3.4240   3.4334
  3.4423   3.4643   3.4753   3.4855   3.4967   3.5179   3.5407   3.5609
  3.5878   3.6003   3.6088   3.6174   3.6258   3.6602   3.6740   3.6851
  3.6968   3.7104   3.7215   3.7368   3.7644   3.7845   3.7894   3.7906
  3.8007   3.8522   3.8643   3.8817   3.8893   3.9082   3.9431   3.9533
  3.9714   3.9808   3.9978   4.0297   4.0425   4.0645   4.0894   4.1040
  4.1213   4.1450   4.1518   4.1611   4.1962   4.2197   4.2233   4.2267
  4.2669   4.2813   4.3044   4.3323   4.3437   4.3806   4.3999   4.4041
  4.4193   4.4340   4.4403   4.4645   4.4818   4.5172   4.5565   4.5792
  4.6001   4.6338   4.6580   4.6824   4.7246   4.7469   4.7906   4.8014
  4.8187   4.8245   4.8692   4.8762   4.9369   4.9439   5.0827   5.0981
  5.1050   5.1336   5.1930   5.2161   5.2582   5.2634   5.2951   5.3094
  5.3628   5.3984   5.4094   5.4475   5.4704   5.4959   5.5495   5.5740
  5.5995   5.6233   5.6331   5.6973   5.7303   5.8303   5.8517   5.8682
  5.8991   5.9994   6.0536   6.1400   6.2270   6.2507   6.2990   6.3550
  6.4240   6.4820   9.2161  11.4369  12.9385  13.8733  14.1941  14.4899
 --------------------------------------------------------------
 
          Ground-State Mulliken Net Atomic Charges

     Atom                 Charge (a.u.)
  ----------------------------------------
      1 C                     0.067045
      2 C                    -0.270509
      3 C                     0.030534
      4 H                     0.177364
      5 C                    -0.250410
      6 S                    -0.008731
      7 C                    -0.273743
      8 H                     0.101094
      9 H                     0.107208
     10 H                     0.107262
     11 C                    -0.374691
     12 H                     0.121405
     13 H                     0.143428
     14 H                     0.129491
     15 H                     0.193253
  ----------------------------------------
  Sum of atomic charges =     0.000000

 -----------------------------------------------------------------
                    Cartesian Multipole Moments
 -----------------------------------------------------------------
    Charge (ESU x 10^10)
                -0.0000
    Dipole Moment (Debye)
         X       0.2591      Y      -0.0813      Z       2.1370
       Tot       2.1542
    Quadrupole Moments (Debye-Ang)
        XX     -53.6650     XY       0.5918     YY     -42.2406
        XZ      -0.1293     YZ      -1.0950     ZZ     -48.9469
    Octopole Moments (Debye-Ang^2)
       XXX      -9.7526    XXY     -32.5458    XYY      -1.5596
       YYY     -78.3873    XXZ      -2.1513    XYZ       0.2264
       YYZ      -1.9034    XZZ      -2.7765    YZZ     -23.6426
       ZZZ       0.8494
    Hexadecapole Moments (Debye-Ang^3)
      XXXX     -82.6393   XXXY     -27.5057   XXYY    -156.4339
      XYYY     -20.7872   YYYY    -810.1231   XXXZ      -7.9302
      XXYZ     -29.2152   XYYZ      -5.3159   YYYZ    -107.8461
      XXZZ    -102.4558   XYZZ      -7.2745   YYZZ    -217.1439
      XZZZ      -8.3804   YZZZ     -96.6526   ZZZZ    -482.8249
 -----------------------------------------------------------------
 Total job time:  161.86s(wall), 159.98s(cpu) 
 Sun Jul 10 09:58:37 2022

        *************************************************************
        *                                                           *
        *  Thank you very much for using Q-Chem.  Have a nice day.  *
        *                                                           *
        *************************************************************


remove work dirs ./qchem2058.0 -- ./qchem2058.-1
rm -rf ./qchem2058
