You are running Q-Chem version: 5.4.0

#
# job setting
#
local host:  exp-4-11
current dir: /expanse/lustre/scratch/theleonzhang/temp_project/Hydrogenated_Impropers_Test
input file:  Methylthiophene_Phi_15_Theta_150_Methylthiophene_Hydrogenated_Improper.qcin
output file: 
nprocs     : 0
nthreads   : 1
#
# qchem installation setting
#
QC:          /cm/shared/apps/spack/cpu/opt/spack/linux-centos8-zen2/gcc-10.2.0/qchem-5.4-akfmr7b3t57bfs6qan3padb2wnb2i7cl
QCAUX:       /cm/shared/apps/spack/cpu/opt/spack/linux-centos8-zen2/gcc-10.2.0/qchem-5.4-akfmr7b3t57bfs6qan3padb2wnb2i7cl/qcaux
QCPROG:      /cm/shared/apps/spack/cpu/opt/spack/linux-centos8-zen2/gcc-10.2.0/qchem-5.4-akfmr7b3t57bfs6qan3padb2wnb2i7cl/exe/qcprog.exe_s
QCPROG_S:    /cm/shared/apps/spack/cpu/opt/spack/linux-centos8-zen2/gcc-10.2.0/qchem-5.4-akfmr7b3t57bfs6qan3padb2wnb2i7cl/exe/qcprog.exe_s
PARALLEL:    -DSERIAL
QCMPI:       mpich
#
# qchem directory setting
#
qcrun:       qchem3430100
QCSCRATCH:   .
QCLOCALSCR:  
QCTMPDIR:    .
QCFILEPREF:  ./qchem3430100
QCSAVEDIR:   
workdirs:    ./qchem3430100
workdir0:    ./qchem3430100
partmpdirs =  
#
# parallel setting
#
QCRSH:           ssh
QCMPI:           mpich
QCMPIRUN:        /cm/shared/apps/spack/cpu/opt/spack/linux-centos8-zen2/gcc-10.2.0/qchem-5.4-akfmr7b3t57bfs6qan3padb2wnb2i7cl/bin/mpi/mpirun_qchem
QCMACHINEFILE:   ./qchem3430100/hostfile

#
# env setting
#
exported envs:   QC QCAUX QCSCRATCH QCRUNNAME QCFILEPREF QCPROG QCPROG_S GUIFILE

Running Job 1 of 1 Methylthiophene_Phi_15_Theta_150_Methylthiophene_Hydrogenated_Improper.qcin
qchem Methylthiophene_Phi_15_Theta_150_Methylthiophene_Hydrogenated_Improper.qcin_3430100.0 ./qchem3430100/ 0
/cm/shared/apps/spack/cpu/opt/spack/linux-centos8-zen2/gcc-10.2.0/qchem-5.4-akfmr7b3t57bfs6qan3padb2wnb2i7cl/exe/qcprog.exe_s Methylthiophene_Phi_15_Theta_150_Methylthiophene_Hydrogenated_Improper.qcin_3430100.0 ./qchem3430100/
                  Welcome to Q-Chem
     A Quantum Leap Into The Future Of Chemistry


 Q-Chem 5.4, Q-Chem, Inc., Pleasanton, CA (2021)

 License issued to: University of California, San Diego (site)

 E. Epifanovsky,  A. T. B. Gilbert,  Xintian Feng,  Joonho Lee,  Yuezhi Mao,  
 N. Mardirossian,  P. Pokhilko,  A. White,  M. Wormit,  M. P. Coons,  
 A. L. Dempwolff,  Zhengting Gan,  D. Hait,  P. R. Horn,  L. D. Jacobson,  
 I. Kaliman,  J. Kussmann,  A. W. Lange,  Ka Un Lao,  D. S. Levine,  Jie Liu,  
 S. C. McKenzie,  A. F. Morrison,  K. Nanda,  F. Plasser,  D. R. Rehn,  
 M. L. Vidal,  Zhi-Qiang You,  Ying Zhu,  B. Alam,  B. Albrecht,  
 A. Aldossary,  E. Alguire,  J. H. Andersen,  D. Barton,  K. Begam,  A. Behn,  
 Y. A. Bernard,  E. J. Berquist,  H. Burton,  A. Carreras,  K. Carter-Fenk,  
 R. Chakraborty,  A. D. Chien,  K. D. Closser,  V. Cofer-Shabica,  
 S. Dasgupta,  Jia Deng,  M. de Wergifosse,  M. Diedenhofen,  Hainam Do,  
 S. Ehlert,  Po-Tung Fang,  S. Fatehi,  Qingguo Feng,  J. Gayvert,  
 Qinghui Ge,  G. Gidofalvi,  M. Goldey,  J. Gomes,  C. Gonzalez-Espinoza,  
 S. Gulania,  A. Gunina,  M. W. D. Hanson-Heine,  P. H. P. Harbach,  
 A. W. Hauser,  M. F. Herbst,  M. Hernandez Vera,  M. Hodecker,  
 Z. C. Holden,  S. Houck,  Xunkun Huang,  Kerwin Hui,  B. C. Huynh,  
 M. Ivanov,  Hyunjun Ji,  Hanjie Jiang,  B. Kaduk,  S. Kaehler,  
 K. Khistyaev,  Jaehoon Kim,  P. Klunzinger,  Z. Koczor-Benda,  
 Joong Hoon Koh,  D. Kosenkov,  L. Koulias,  T. Kowalczyk,  C. M. Krauter,  
 K. Kue,  A. Kunitsa,  T. Kus,  A. Landau,  K. V. Lawler,  D. Lefrancois,  
 S. Lehtola,  Rain Li,  Yi-Pei Li,  Jiashu Liang,  M. Liebenthal,  
 Hung-Hsuan Lin,  You-Sheng Lin,  Fenglai Liu,  Kuan-Yu Liu,  
 M. Loipersberger,  A. Luenser,  A. Manjanath,  P. Manohar,  E. Mansoor,  
 S. F. Manzer,  Shan-Ping Mao,  A. V. Marenich,  T. Markovich,  S. Mason,  
 S. A. Maurer,  P. F. McLaughlin,  M. F. S. J. Menger,  J.-M. Mewes,  
 S. A. Mewes,  P. Morgante,  J. W. Mullinax,  T. S. Nguyen-Beck,  
 K. J. Oosterbaan,  G. Paran,  Alexander C. Paul,  Suranjan K. Paul,  
 F. Pavosevic,  Zheng Pei,  S. Prager,  E. I. Proynov,  E. Ramos,  B. Rana,  
 A. E. Rask,  A. Rettig,  R. M. Richard,  F. Rob,  E. Rossomme,  T. Scheele,  
 M. Scheurer,  M. Schneider,  N. Sergueev,  S. M. Sharada,  W. Skomorowski,  
 D. W. Small,  C. J. Stein,  Yu-Chuan Su,  E. J. Sundstrom,  Zhen Tao,  
 J. Thirman,  T. Tsuchimochi,  N. M. Tubman,  S. P. Veccham,  O. Vydrov,  
 J. Wenzel,  J. Witte,  A. Yamada,  Kun Yao,  S. Yeganeh,  S. R. Yost,  
 A. Zech,  Igor Ying Zhang,  Xing Zhang,  Yu Zhang,  D. Zuev,  
 A. Aspuru-Guzik,  A. T. Bell,  N. A. Besley,  K. B. Bravaya,  B. R. Brooks,  
 D. Casanova,  Jeng-Da Chai,  S. Coriani,  C. J. Cramer,  
 A. E. DePrince, III,  R. A. DiStasio Jr.,  A. Dreuw,  B. D. Dunietz,  
 T. R. Furlani,  W. A. Goddard III,  S. Grimme,  S. Hammes-Schiffer,  
 T. Head-Gordon,  W. J. Hehre,  Chao-Ping Hsu,  T.-C. Jagau,  Yousung Jung,  
 A. Klamt,  Jing Kong,  D. S. Lambrecht,  WanZhen Liang,  N. J. Mayhall,  
 C. W. McCurdy,  J. B. Neaton,  C. Ochsenfeld,  J. A. Parkhill,  R. Peverati,  
 V. A. Rassolov,  Yihan Shao,  L. V. Slipchenko,  T. Stauch,  R. P. Steele,  
 J. E. Subotnik,  A. J. W. Thom,  A. Tkatchenko,  D. G. Truhlar,  
 T. Van Voorhis,  T. A. Wesolowski,  K. B. Whaley,  H. L. Woodcock III,  
 P. M. Zimmerman,  S. Faraji,  P. M. W. Gill,  M. Head-Gordon,  
 J. M. Herbert,  A. I. Krylov

 Contributors to earlier versions of Q-Chem not listed above: 
 R. D. Adamson,  B. Austin,  R. Baer,  J. Baker,  G. J. O. Beran,  
 K. Brandhorst,  S. T. Brown,  E. F. C. Byrd,  A. K. Chakraborty,  
 G. K. L. Chan,  Chun-Min Chang,  Yunqing Chen,  C.-L. Cheng,  
 Siu Hung Chien,  D. M. Chipman,  D. L. Crittenden,  H. Dachsel,  
 R. J. Doerksen,  A. D. Dutoi,  R. G. Edgar,  J. Fosso-Tande,  
 L. Fusti-Molnar,  D. Ghosh,  A. Ghysels,  A. Golubeva-Zadorozhnaya,  
 J. Gonthier,  M. S. Gordon,  S. R. Gwaltney,  G. Hawkins,  J. E. Herr,  
 A. Heyden,  S. Hirata,  E. G. Hohenstein,  G. Kedziora,  F. J. Keil,  
 C. Kelley,  Jihan Kim,  R. A. King,  R. Z. Khaliullin,  P. P. Korambath,  
 W. Kurlancheek,  A. Laurent,  A. M. Lee,  M. S. Lee,  S. V. Levchenko,  
 Ching Yeh Lin,  D. Liotard,  E. Livshits,  R. C. Lochan,  I. Lotan,  
 L. A. Martinez-Martinez,  P. E. Maslen,  N. Nair,  D. P. O'Neill,  
 D. Neuhauser,  E. Neuscamman,  C. M. Oana,  R. Olivares-Amaya,  R. Olson,  
 T. M. Perrine,  B. Peters,  P. A. Pieniazek,  A. Prociuk,  Y. M. Rhee,  
 J. Ritchie,  M. A. Rohrdanz,  E. Rosta,  N. J. Russ,  H. F. Schaefer III,  
 M. W. Schmidt,  N. E. Schultz,  S. Sharma,  N. Shenvi,  C. D. Sherrill,  
 A. C. Simmonett,  A. Sodt,  T. Stein,  D. Stuck,  K. S. Thanthiriwatte,  
 V. Vanovschi,  L. Vogt,  Tao Wang,  A. Warshel,  M. A. Watson,  
 C. F. Williams,  Q. Wu,  X. Xu,  Jun Yang,  W. Zhang,  Yan Zhao

 Please cite Q-Chem as follows:
 Y. Shao et al., Mol. Phys. 113, 184-215 (2015)
 DOI: 10.1080/00268976.2014.952696

 Q-Chem 5.4.0 for Intel X86 EM64T Linux

 Parts of Q-Chem use Armadillo 9.800.1 (Horizon Scraper).
 http://arma.sourceforge.net/

 Q-Chem begins on Sun Jul 10 09:32:55 2022  

 Host: 
0

     Scratch files written to ./qchem3430100//
 May1621 |scratch|qcdevops|jenkins|workspace|build_RNUM    
 Processing $rem in /cm/shared/apps/spack/cpu/opt/spack/linux-centos8-zen2/gcc-10.2.0/qchem-5.4-akfmr7b3t57bfs6qan3padb2wnb2i7cl/config/preferences:
 Processing $rem in /home/theleonzhang/.qchemrc:
 Symmetry turned off for PCM/SM12/SMD calculation
 Core orbitals will be frozen

 Checking the input file for inconsistencies... 	...done.

--------------------------------------------------------------
User input:
--------------------------------------------------------------
$molecule
0 1
C	-0.171084	-0.553189	0.013104
C	0.052416	0.281011	1.112504
C	0.410616	1.617711	0.789804
H	-0.042984	-0.075289	2.149204
C	0.467816	1.830811	-0.599396
S	0.072816	0.357111	-1.473696
C	0.692216	2.668411	1.827704
H	0.582016	2.257311	2.849804
H	-0.000384	3.531411	1.739304
H	1.723516	3.069411	1.739304
C	-0.171084	-1.993889	0.013104
H	-1.106484	-1.994089	0.553004
H	0.238416	-2.697689	0.722604
H	-0.644684	-2.512789	-0.807096
H	0.713516	2.747711	-1.148496
$end

$rem
JOBTYPE		SP
EXCHANGE	HF
CORRELATION	pRIMP2
BASIS		cc-pvtz
METHOD		rimp2
AUX_BASIS	rimp2-cc-pvtz
SOLVENT_METHOD	PCM
PURECART	11111
SYMMETRY	false
MEM_TOTAL	110000
SCF_CONVERGENCE = 6
THRESH=10
$end



$solvent
dielectric 4.90
$end
--------------------------------------------------------------
 ----------------------------------------------------------------
             Standard Nuclear Orientation (Angstroms)
    I     Atom           X                Y                Z
 ----------------------------------------------------------------
    1      C      -0.1710840000    -0.5531890000     0.0131040000
    2      C       0.0524160000     0.2810110000     1.1125040000
    3      C       0.4106160000     1.6177110000     0.7898040000
    4      H      -0.0429840000    -0.0752890000     2.1492040000
    5      C       0.4678160000     1.8308110000    -0.5993960000
    6      S       0.0728160000     0.3571110000    -1.4736960000
    7      C       0.6922160000     2.6684110000     1.8277040000
    8      H       0.5820160000     2.2573110000     2.8498040000
    9      H      -0.0003840000     3.5314110000     1.7393040000
   10      H       1.7235160000     3.0694110000     1.7393040000
   11      C      -0.1710840000    -1.9938890000     0.0131040000
   12      H      -1.1064840000    -1.9940890000     0.5530040000
   13      H       0.2384160000    -2.6976890000     0.7226040000
   14      H      -0.6446840000    -2.5127890000    -0.8070960000
   15      H       0.7135160000     2.7477110000    -1.1484960000
 ----------------------------------------------------------------
 Nuclear Repulsion Energy =         344.52050944 hartrees
 There are       30 alpha and       30 beta electrons

 Q-Chem warning in module forms1/BasisType.C, line 2236:

 You are not using the predefined 5D/6D in this basis set.

 Requested basis set is cc-pVTZ
 There are 120 shells and 326 basis functions

 Total QAlloc Memory Limit 110000 MB
 Mega-Array Size       188 MB
 MEM_STATIC part       192 MB
 Discretize the solute cavity surface with Lebedev spheres
	Using 110 Lebedev grid points for each H atom
	Using 194 Lebedev grid points for other atoms
	Atomic van der Waals radii will be scaled by 1.20
 Remove points where switching function is < 1.0e-08
 Keep 1060 surface tesserae and discard 1178 interior tesserae
 Molecular Surface Area = 158.338 Angst**2

                       Distance Matrix (Angstroms)
             C (  1)   C (  2)   C (  3)   H (  4)   C (  5)   S (  6)
   C (  2)  1.398042
   C (  3)  2.377908  1.420989
   H (  4)  2.192652  1.100363  2.218101
   C (  5)  2.542991  2.346282  1.406613  3.383628
   S (  6)  1.760315  2.587400  2.612787  3.650450  1.758470
   C (  7)  3.796942  2.573040  1.503498  2.858631  2.577352  4.077377
   H (  8)  4.063611  2.684110  2.163808  2.514456  3.477344  4.750021
   H (  9)  4.437664  3.310705  2.175481  3.630168  2.929295  4.517179
   H ( 10)  4.437624  3.310684  2.175475  3.630107  2.929237  4.517162
   C ( 11)  1.440700  2.536494  3.739691  2.874084  3.925771  2.792358
   H ( 12)  1.800738  2.613842  3.924636  2.713057  4.293752  3.320603
   H ( 13)  2.295640  3.009862  4.319357  2.998559  4.723094  3.766027
   H ( 14)  2.176478  3.460655  4.552447  3.878551  4.488614  3.032406
   H ( 15)  3.609401  3.410833  2.263991  4.406410  1.096624  2.496241
             C (  7)   H (  8)   H (  9)   H ( 10)   C ( 11)   H ( 12)
   H (  8)  1.107175
   H (  9)  1.110080  1.787661
   H ( 10)  1.110043  1.787663  1.784734
   C ( 11)  5.076918  5.165920  5.791187  5.675058
   H ( 12)  5.157430  5.118664  5.758638  5.920747  1.080030
   H ( 13)  5.497473  5.403246  6.316042  6.041411  1.080007  1.527276
   H ( 14)  5.964420  6.134457  6.590268  6.576738  1.079945  1.527148
   H ( 15)  2.977332  4.030408  3.076236  3.076196  4.961311  5.356507
             H ( 13)   H ( 14)
   H ( 14)  1.775961
   H ( 15)  5.777466  5.443723
 
 Requested basis set is rimp2-cc-pVTZ
 There are 250 shells and 848 basis functions
 A cutoff of  1.0D-10 yielded   6170 shell pairs
 There are     45182 function pairs (     58091 Cartesian)
 Smallest overlap matrix eigenvalue = 9.19E-05

 Scale SEOQF with 1.000000e-01/1.000000e-01/1.000000e-01

 Standard Electronic Orientation quadrupole field applied
 Nucleus-field energy     =     0.0000000021 hartrees
 Guess from superposition of atomic densities
 Warning:  Energy on first SCF cycle will be non-variational
 SAD guess density has 60.000000 electrons

 -----------------------------------------------------------------------
  General SCF calculation program by
  Eric Jon Sundstrom, Paul Horn, Yuezhi Mao, Dmitri Zuev, Alec White,
  David Stuck, Shaama M.S., Shane Yost, Joonho Lee, David Small,
  Daniel Levine, Susi Lehtola, Hugh Burton, Evgeny Epifanovsky,
  Bang C. Huynh
 -----------------------------------------------------------------------
 Hartree-Fock
 A restricted SCF calculation will be
 performed using DIIS
 SCF converges when DIIS error is below 1.0e-06
 ---------------------------------------
  Cycle       Energy         DIIS error
 ---------------------------------------
    1    -632.0989637420      2.92e-02  
    2    -629.3384285297      1.93e-03  
    3    -629.4083240829      6.76e-04  
    4    -629.4156782876      3.49e-04  
    5    -629.4177934041      6.23e-05  
    6    -629.4179215347      2.52e-05  
    7    -629.4179518057      1.11e-05  
    8    -629.4179603023      5.06e-06  
    9    -629.4179617867      1.69e-06  
   10    -629.4179619782      6.07e-07  Convergence criterion met
 ---------------------------------------
 SCF time:   CPU 143.11s  wall 144.00s 

************** Final PCM Free Energy Summary **************
 G_electrostatic  =      -0.00569666 hartree =      -3.57470980 kcal/mol
 G_cavitation     =       0.00000000 hartree =       0.00000000 kcal/mol
 G_dispersion     =       0.00000000 hartree =       0.00000000 kcal/mol
 G_repulsion      =       0.00000000 hartree =       0.00000000 kcal/mol
 --------------------------------------------------
 Non-electrostatic Free Energy =       0.00000000 hartree =       0.00000000 kcal/mol
 Total                         =      -0.00569666 hartree =      -3.57470980 kcal/mol
 --------------------------------------------------
 SCF Energy (H0 + V/2)                       =    -629.41796198 
 Solute Internal Energy (H0)                 =    -629.41226532 
 Total Free Energy (H0 + V/2 + non-elec)     =    -629.41796198 hartree
                                             = -394965.73235881 kcal/mol
***********************************************************

 SCF   energy in the final basis set =     -629.4179619782
 Total energy in the final basis set =     -629.4179619782


 --------------------------------------------------------------
  Generalized many-body perturbation theory program
  by Joonho Lee, Fazle Rob, Xintian Feng, Evgeny Epifanovsky

 No regularization used 
 (reg. param. = 0.0000e+00)
  (P|Q)^-1/2 Time:  CPU 0.48 s  wall 0.48 s

 In RI-MP2 calculation: 
 # of frozen core orbitals: 11

 Components of the RIMP2 correlation energy:
        aaaa    correlation energy =        -0.1456357483 a.u.
        abab    correlation energy =        -0.8867689291 a.u.
        bbbb    correlation energy =        -0.1456357483 a.u.
        non-Brillouin singles      =        -0.0000000000 a.u.
        total same-spin energy     =        -0.2912714967 a.u.
        total opposite-spin energy =        -0.8867689291 a.u.

 Total  RIMP2   correlation energy =        -1.1780404258 a.u.
        RIMP2         total energy =      -630.5960024040 a.u.

 RI-MP2 Energy Time:  CPU 11.01 s  wall 11.04 s
 
 --------------------------------------------------------------
 
                    Orbital Energies (a.u.)
 --------------------------------------------------------------
 
 Alpha MOs
 -- Occupied --
-91.9772 -11.2805 -11.2523 -11.2473 -11.2273 -11.2267 -11.2185  -8.9771
 -6.6580  -6.6575  -6.6569  -1.1603  -1.0548  -0.9980  -0.9411  -0.8834
 -0.7430  -0.7206  -0.6491  -0.5867  -0.5742  -0.5657  -0.5590  -0.5440
 -0.5098  -0.4923  -0.4629  -0.4503  -0.3375  -0.2914
 -- Virtual --
  0.1069   0.1450   0.1479   0.1750   0.1812   0.1897   0.2096   0.2247
  0.2299   0.2422   0.2510   0.2596   0.2946   0.3190   0.3443   0.3506
  0.3870   0.3917   0.4056   0.4235   0.4347   0.4587   0.4721   0.4914
  0.4981   0.5022   0.5210   0.5364   0.5440   0.5522   0.5757   0.5824
  0.5968   0.6047   0.6125   0.6252   0.6319   0.6359   0.6471   0.6483
  0.6553   0.6641   0.6862   0.7109   0.7200   0.7522   0.7684   0.7840
  0.8161   0.8329   0.8430   0.8482   0.8674   0.8925   0.9194   0.9256
  0.9569   0.9822   0.9995   1.0162   1.0332   1.0520   1.0656   1.0744
  1.0807   1.0866   1.0997   1.1222   1.1507   1.1706   1.1834   1.2159
  1.2222   1.2469   1.2541   1.2715   1.2842   1.2909   1.3089   1.3300
  1.3565   1.3810   1.3963   1.4121   1.4298   1.4453   1.4627   1.4742
  1.4959   1.5129   1.5176   1.5373   1.5451   1.5613   1.5670   1.5841
  1.5958   1.6296   1.6363   1.6777   1.7000   1.7053   1.7086   1.7475
  1.7556   1.7985   1.8016   1.8299   1.8856   1.9090   1.9390   1.9650
  2.0029   2.0377   2.1011   2.1509   2.1784   2.1960   2.2127   2.2285
  2.2669   2.2936   2.3673   2.4173   2.4661   2.4795   2.5343   2.5372
  2.5678   2.5928   2.6303   2.6592   2.6762   2.7110   2.7312   2.7430
  2.7484   2.7651   2.7853   2.7924   2.8071   2.8467   2.8551   2.8596
  2.9074   2.9115   2.9552   2.9785   3.0016   3.0259   3.0467   3.0608
  3.0688   3.0904   3.1137   3.1439   3.1567   3.1642   3.1746   3.1896
  3.2091   3.2402   3.2655   3.2812   3.2884   3.3113   3.3178   3.3277
  3.3438   3.3706   3.3902   3.3954   3.4138   3.4228   3.4298   3.4344
  3.4489   3.4829   3.4857   3.4939   3.5085   3.5241   3.5440   3.5525
  3.5780   3.5873   3.6182   3.6268   3.6279   3.6497   3.6559   3.6822
  3.6942   3.7046   3.7101   3.7256   3.7569   3.7793   3.7920   3.7971
  3.8261   3.8373   3.8451   3.8819   3.8971   3.9108   3.9348   3.9468
  3.9737   3.9909   4.0188   4.0313   4.0441   4.0679   4.1024   4.1062
  4.1218   4.1424   4.1633   4.1950   4.2159   4.2237   4.2355   4.2653
  4.2892   4.2930   4.3184   4.3344   4.3410   4.3797   4.3857   4.4025
  4.4183   4.4252   4.4349   4.4547   4.4743   4.5162   4.5427   4.5642
  4.6071   4.6223   4.6524   4.6855   4.7061   4.7372   4.7546   4.7785
  4.8026   4.8294   4.8790   4.8911   4.9100   4.9619   5.0713   5.0889
  5.1147   5.1418   5.1756   5.1958   5.2002   5.2668   5.2889   5.3225
  5.3706   5.4054   5.4153   5.4376   5.4854   5.5193   5.5575   5.5635
  5.5727   5.6239   5.6319   5.6568   5.7046   5.8096   5.8360   5.9026
  5.9418   6.0166   6.0735   6.1387   6.2275   6.2547   6.3005   6.3828
  6.4530   6.6058   9.2196  11.4644  12.9531  13.7657  14.1727  14.6573
 --------------------------------------------------------------
 
          Ground-State Mulliken Net Atomic Charges

     Atom                 Charge (a.u.)
  ----------------------------------------
      1 C                     0.057388
      2 C                    -0.305878
      3 C                     0.050396
      4 H                     0.175619
      5 C                    -0.268074
      6 S                     0.002157
      7 C                    -0.274042
      8 H                     0.101253
      9 H                     0.107085
     10 H                     0.107238
     11 C                    -0.376583
     12 H                     0.136259
     13 H                     0.158906
     14 H                     0.136379
     15 H                     0.191896
  ----------------------------------------
  Sum of atomic charges =     0.000000

 -----------------------------------------------------------------
                    Cartesian Multipole Moments
 -----------------------------------------------------------------
    Charge (ESU x 10^10)
                -0.0000
    Dipole Moment (Debye)
         X      -0.3028      Y      -0.4707      Z       1.7903
       Tot       1.8757
    Quadrupole Moments (Debye-Ang)
        XX     -53.4575     XY       3.5287     YY     -42.6375
        XZ       0.2778     YZ      -0.5346     ZZ     -48.5815
    Octopole Moments (Debye-Ang^2)
       XXX     -27.6697    XXY     -29.1687    XYY      -6.5576
       YYY     -79.2801    XXZ      -2.2362    XYZ      -1.5547
       YYZ      -2.1448    XZZ      -7.7553    YZZ     -24.6611
       ZZZ       0.7064
    Hexadecapole Moments (Debye-Ang^3)
      XXXX    -118.7752   XXXY     -84.0356   XXYY    -157.6263
      XYYY     -66.6321   YYYY    -776.8964   XXXZ     -23.9940
      XXYZ     -29.0914   XYYZ      -7.9903   YYYZ    -103.9202
      XXZZ    -106.8481   XYZZ     -22.6007   YYZZ    -206.2881
      XZZZ     -26.2997   YZZZ     -96.0509   ZZZZ    -484.1898
 -----------------------------------------------------------------
 Total job time:  155.28s(wall), 154.47s(cpu) 
 Sun Jul 10 09:35:30 2022

        *************************************************************
        *                                                           *
        *  Thank you very much for using Q-Chem.  Have a nice day.  *
        *                                                           *
        *************************************************************


remove work dirs ./qchem3430100.0 -- ./qchem3430100.-1
rm -rf ./qchem3430100
