You are running Q-Chem version: 5.4.0

#
# job setting
#
local host:  exp-4-52
current dir: /expanse/lustre/scratch/theleonzhang/temp_project/Hydrogenated_Impropers_Test
input file:  Methylthiophene_Phi_10_Theta_210_Methylthiophene_Hydrogenated_Improper_Alternate.qcin
output file: 
nprocs     : 0
nthreads   : 1
#
# qchem installation setting
#
QC:          /cm/shared/apps/spack/cpu/opt/spack/linux-centos8-zen2/gcc-10.2.0/qchem-5.4-akfmr7b3t57bfs6qan3padb2wnb2i7cl
QCAUX:       /cm/shared/apps/spack/cpu/opt/spack/linux-centos8-zen2/gcc-10.2.0/qchem-5.4-akfmr7b3t57bfs6qan3padb2wnb2i7cl/qcaux
QCPROG:      /cm/shared/apps/spack/cpu/opt/spack/linux-centos8-zen2/gcc-10.2.0/qchem-5.4-akfmr7b3t57bfs6qan3padb2wnb2i7cl/exe/qcprog.exe_s
QCPROG_S:    /cm/shared/apps/spack/cpu/opt/spack/linux-centos8-zen2/gcc-10.2.0/qchem-5.4-akfmr7b3t57bfs6qan3padb2wnb2i7cl/exe/qcprog.exe_s
PARALLEL:    -DSERIAL
QCMPI:       mpich
#
# qchem directory setting
#
qcrun:       qchem2248867
QCSCRATCH:   .
QCLOCALSCR:  
QCTMPDIR:    .
QCFILEPREF:  ./qchem2248867
QCSAVEDIR:   
workdirs:    ./qchem2248867
workdir0:    ./qchem2248867
partmpdirs =  
#
# parallel setting
#
QCRSH:           ssh
QCMPI:           mpich
QCMPIRUN:        /cm/shared/apps/spack/cpu/opt/spack/linux-centos8-zen2/gcc-10.2.0/qchem-5.4-akfmr7b3t57bfs6qan3padb2wnb2i7cl/bin/mpi/mpirun_qchem
QCMACHINEFILE:   ./qchem2248867/hostfile

#
# env setting
#
exported envs:   QC QCAUX QCSCRATCH QCRUNNAME QCFILEPREF QCPROG QCPROG_S GUIFILE

Running Job 1 of 1 Methylthiophene_Phi_10_Theta_210_Methylthiophene_Hydrogenated_Improper_Alternate.qcin
qchem Methylthiophene_Phi_10_Theta_210_Methylthiophene_Hydrogenated_Improper_Alternate.qcin_2248867.0 ./qchem2248867/ 0
/cm/shared/apps/spack/cpu/opt/spack/linux-centos8-zen2/gcc-10.2.0/qchem-5.4-akfmr7b3t57bfs6qan3padb2wnb2i7cl/exe/qcprog.exe_s Methylthiophene_Phi_10_Theta_210_Methylthiophene_Hydrogenated_Improper_Alternate.qcin_2248867.0 ./qchem2248867/
                  Welcome to Q-Chem
     A Quantum Leap Into The Future Of Chemistry


 Q-Chem 5.4, Q-Chem, Inc., Pleasanton, CA (2021)

 License issued to: University of California, San Diego (site)

 E. Epifanovsky,  A. T. B. Gilbert,  Xintian Feng,  Joonho Lee,  Yuezhi Mao,  
 N. Mardirossian,  P. Pokhilko,  A. White,  M. Wormit,  M. P. Coons,  
 A. L. Dempwolff,  Zhengting Gan,  D. Hait,  P. R. Horn,  L. D. Jacobson,  
 I. Kaliman,  J. Kussmann,  A. W. Lange,  Ka Un Lao,  D. S. Levine,  Jie Liu,  
 S. C. McKenzie,  A. F. Morrison,  K. Nanda,  F. Plasser,  D. R. Rehn,  
 M. L. Vidal,  Zhi-Qiang You,  Ying Zhu,  B. Alam,  B. Albrecht,  
 A. Aldossary,  E. Alguire,  J. H. Andersen,  D. Barton,  K. Begam,  A. Behn,  
 Y. A. Bernard,  E. J. Berquist,  H. Burton,  A. Carreras,  K. Carter-Fenk,  
 R. Chakraborty,  A. D. Chien,  K. D. Closser,  V. Cofer-Shabica,  
 S. Dasgupta,  Jia Deng,  M. de Wergifosse,  M. Diedenhofen,  Hainam Do,  
 S. Ehlert,  Po-Tung Fang,  S. Fatehi,  Qingguo Feng,  J. Gayvert,  
 Qinghui Ge,  G. Gidofalvi,  M. Goldey,  J. Gomes,  C. Gonzalez-Espinoza,  
 S. Gulania,  A. Gunina,  M. W. D. Hanson-Heine,  P. H. P. Harbach,  
 A. W. Hauser,  M. F. Herbst,  M. Hernandez Vera,  M. Hodecker,  
 Z. C. Holden,  S. Houck,  Xunkun Huang,  Kerwin Hui,  B. C. Huynh,  
 M. Ivanov,  Hyunjun Ji,  Hanjie Jiang,  B. Kaduk,  S. Kaehler,  
 K. Khistyaev,  Jaehoon Kim,  P. Klunzinger,  Z. Koczor-Benda,  
 Joong Hoon Koh,  D. Kosenkov,  L. Koulias,  T. Kowalczyk,  C. M. Krauter,  
 K. Kue,  A. Kunitsa,  T. Kus,  A. Landau,  K. V. Lawler,  D. Lefrancois,  
 S. Lehtola,  Rain Li,  Yi-Pei Li,  Jiashu Liang,  M. Liebenthal,  
 Hung-Hsuan Lin,  You-Sheng Lin,  Fenglai Liu,  Kuan-Yu Liu,  
 M. Loipersberger,  A. Luenser,  A. Manjanath,  P. Manohar,  E. Mansoor,  
 S. F. Manzer,  Shan-Ping Mao,  A. V. Marenich,  T. Markovich,  S. Mason,  
 S. A. Maurer,  P. F. McLaughlin,  M. F. S. J. Menger,  J.-M. Mewes,  
 S. A. Mewes,  P. Morgante,  J. W. Mullinax,  T. S. Nguyen-Beck,  
 K. J. Oosterbaan,  G. Paran,  Alexander C. Paul,  Suranjan K. Paul,  
 F. Pavosevic,  Zheng Pei,  S. Prager,  E. I. Proynov,  E. Ramos,  B. Rana,  
 A. E. Rask,  A. Rettig,  R. M. Richard,  F. Rob,  E. Rossomme,  T. Scheele,  
 M. Scheurer,  M. Schneider,  N. Sergueev,  S. M. Sharada,  W. Skomorowski,  
 D. W. Small,  C. J. Stein,  Yu-Chuan Su,  E. J. Sundstrom,  Zhen Tao,  
 J. Thirman,  T. Tsuchimochi,  N. M. Tubman,  S. P. Veccham,  O. Vydrov,  
 J. Wenzel,  J. Witte,  A. Yamada,  Kun Yao,  S. Yeganeh,  S. R. Yost,  
 A. Zech,  Igor Ying Zhang,  Xing Zhang,  Yu Zhang,  D. Zuev,  
 A. Aspuru-Guzik,  A. T. Bell,  N. A. Besley,  K. B. Bravaya,  B. R. Brooks,  
 D. Casanova,  Jeng-Da Chai,  S. Coriani,  C. J. Cramer,  
 A. E. DePrince, III,  R. A. DiStasio Jr.,  A. Dreuw,  B. D. Dunietz,  
 T. R. Furlani,  W. A. Goddard III,  S. Grimme,  S. Hammes-Schiffer,  
 T. Head-Gordon,  W. J. Hehre,  Chao-Ping Hsu,  T.-C. Jagau,  Yousung Jung,  
 A. Klamt,  Jing Kong,  D. S. Lambrecht,  WanZhen Liang,  N. J. Mayhall,  
 C. W. McCurdy,  J. B. Neaton,  C. Ochsenfeld,  J. A. Parkhill,  R. Peverati,  
 V. A. Rassolov,  Yihan Shao,  L. V. Slipchenko,  T. Stauch,  R. P. Steele,  
 J. E. Subotnik,  A. J. W. Thom,  A. Tkatchenko,  D. G. Truhlar,  
 T. Van Voorhis,  T. A. Wesolowski,  K. B. Whaley,  H. L. Woodcock III,  
 P. M. Zimmerman,  S. Faraji,  P. M. W. Gill,  M. Head-Gordon,  
 J. M. Herbert,  A. I. Krylov

 Contributors to earlier versions of Q-Chem not listed above: 
 R. D. Adamson,  B. Austin,  R. Baer,  J. Baker,  G. J. O. Beran,  
 K. Brandhorst,  S. T. Brown,  E. F. C. Byrd,  A. K. Chakraborty,  
 G. K. L. Chan,  Chun-Min Chang,  Yunqing Chen,  C.-L. Cheng,  
 Siu Hung Chien,  D. M. Chipman,  D. L. Crittenden,  H. Dachsel,  
 R. J. Doerksen,  A. D. Dutoi,  R. G. Edgar,  J. Fosso-Tande,  
 L. Fusti-Molnar,  D. Ghosh,  A. Ghysels,  A. Golubeva-Zadorozhnaya,  
 J. Gonthier,  M. S. Gordon,  S. R. Gwaltney,  G. Hawkins,  J. E. Herr,  
 A. Heyden,  S. Hirata,  E. G. Hohenstein,  G. Kedziora,  F. J. Keil,  
 C. Kelley,  Jihan Kim,  R. A. King,  R. Z. Khaliullin,  P. P. Korambath,  
 W. Kurlancheek,  A. Laurent,  A. M. Lee,  M. S. Lee,  S. V. Levchenko,  
 Ching Yeh Lin,  D. Liotard,  E. Livshits,  R. C. Lochan,  I. Lotan,  
 L. A. Martinez-Martinez,  P. E. Maslen,  N. Nair,  D. P. O'Neill,  
 D. Neuhauser,  E. Neuscamman,  C. M. Oana,  R. Olivares-Amaya,  R. Olson,  
 T. M. Perrine,  B. Peters,  P. A. Pieniazek,  A. Prociuk,  Y. M. Rhee,  
 J. Ritchie,  M. A. Rohrdanz,  E. Rosta,  N. J. Russ,  H. F. Schaefer III,  
 M. W. Schmidt,  N. E. Schultz,  S. Sharma,  N. Shenvi,  C. D. Sherrill,  
 A. C. Simmonett,  A. Sodt,  T. Stein,  D. Stuck,  K. S. Thanthiriwatte,  
 V. Vanovschi,  L. Vogt,  Tao Wang,  A. Warshel,  M. A. Watson,  
 C. F. Williams,  Q. Wu,  X. Xu,  Jun Yang,  W. Zhang,  Yan Zhao

 Please cite Q-Chem as follows:
 Y. Shao et al., Mol. Phys. 113, 184-215 (2015)
 DOI: 10.1080/00268976.2014.952696

 Q-Chem 5.4.0 for Intel X86 EM64T Linux

 Parts of Q-Chem use Armadillo 9.800.1 (Horizon Scraper).
 http://arma.sourceforge.net/

 Q-Chem begins on Sun Jul 10 10:10:52 2022  

 Host: 
0

     Scratch files written to ./qchem2248867//
 May1621 |scratch|qcdevops|jenkins|workspace|build_RNUM    
 Processing $rem in /cm/shared/apps/spack/cpu/opt/spack/linux-centos8-zen2/gcc-10.2.0/qchem-5.4-akfmr7b3t57bfs6qan3padb2wnb2i7cl/config/preferences:
 Processing $rem in /home/theleonzhang/.qchemrc:
 Symmetry turned off for PCM/SM12/SMD calculation
 Core orbitals will be frozen

 Checking the input file for inconsistencies... 	...done.

--------------------------------------------------------------
User input:
--------------------------------------------------------------
$molecule
0 1
C	-0.122301	-0.566010	0.013103
C	0.027699	0.284490	1.112503
C	0.267999	1.647390	0.789803
H	-0.036401	-0.078710	2.149203
C	0.306399	1.864690	-0.599397
S	0.041399	0.362090	-1.473697
C	0.456899	2.718590	1.827703
H	0.382999	2.299390	2.849803
H	-0.308301	3.517890	1.739303
H	1.449399	3.207890	1.739303
C	-0.122301	-2.006710	0.013103
H	0.812899	-2.006410	0.553203
H	-0.531901	-2.710510	0.722503
H	0.351299	-2.525610	-0.807097
H	0.471199	2.799390	-1.148497
$end

$rem
JOBTYPE		SP
EXCHANGE	HF
CORRELATION	pRIMP2
BASIS		cc-pvtz
METHOD		rimp2
AUX_BASIS	rimp2-cc-pvtz
SOLVENT_METHOD	PCM
PURECART	11111
SYMMETRY	false
MEM_TOTAL	110000
SCF_CONVERGENCE = 6
THRESH=10
$end



$solvent
dielectric 4.90
$end
--------------------------------------------------------------
 ----------------------------------------------------------------
             Standard Nuclear Orientation (Angstroms)
    I     Atom           X                Y                Z
 ----------------------------------------------------------------
    1      C      -0.1223010000    -0.5660100000     0.0131030000
    2      C       0.0276990000     0.2844900000     1.1125030000
    3      C       0.2679990000     1.6473900000     0.7898030000
    4      H      -0.0364010000    -0.0787100000     2.1492030000
    5      C       0.3063990000     1.8646900000    -0.5993970000
    6      S       0.0413990000     0.3620900000    -1.4736970000
    7      C       0.4568990000     2.7185900000     1.8277030000
    8      H       0.3829990000     2.2993900000     2.8498030000
    9      H      -0.3083010000     3.5178900000     1.7393030000
   10      H       1.4493990000     3.2078900000     1.7393030000
   11      C      -0.1223010000    -2.0067100000     0.0131030000
   12      H       0.8128990000    -2.0064100000     0.5532030000
   13      H      -0.5319010000    -2.7105100000     0.7225030000
   14      H       0.3512990000    -2.5256100000    -0.8070970000
   15      H       0.4711990000     2.7993900000    -1.1484970000
 ----------------------------------------------------------------
 Nuclear Repulsion Energy =         344.65300610 hartrees
 There are       30 alpha and       30 beta electrons

 Q-Chem warning in module forms1/BasisType.C, line 2236:

 You are not using the predefined 5D/6D in this basis set.

 Requested basis set is cc-pVTZ
 There are 120 shells and 326 basis functions

 Total QAlloc Memory Limit 110000 MB
 Mega-Array Size       188 MB
 MEM_STATIC part       192 MB
 Discretize the solute cavity surface with Lebedev spheres
	Using 110 Lebedev grid points for each H atom
	Using 194 Lebedev grid points for other atoms
	Atomic van der Waals radii will be scaled by 1.20
 Remove points where switching function is < 1.0e-08
 Keep 1069 surface tesserae and discard 1169 interior tesserae
 Molecular Surface Area = 158.661 Angst**2

                       Distance Matrix (Angstroms)
             C (  1)   C (  2)   C (  3)   H (  4)   C (  5)   S (  6)
   C (  2)  1.398045
   C (  3)  2.377969  1.421047
   H (  4)  2.192661  1.100350  2.218118
   C (  5)  2.543077  2.346339  1.406617  3.383654
   S (  6)  1.760324  2.587400  2.612810  3.650447  1.758531
   C (  7)  3.796952  2.573046  1.503459  2.858600  2.577326  4.077373
   H (  8)  4.063584  2.684077  2.163777  2.514378  3.477328  4.749997
   H (  9)  4.437635  3.310687  2.175418  3.630080  2.929239  4.517160
   H ( 10)  4.437604  3.310646  2.175412  3.630063  2.929190  4.517124
   C ( 11)  1.440700  2.545737  3.756068  2.878799  3.942928  2.801533
   H ( 12)  1.800294  2.485473  3.701777  2.642831  4.070681  3.211437
   H ( 13)  2.295626  3.071690  4.431214  3.034364  4.835558  3.820057
   H ( 14)  2.176478  3.418515  4.468888  3.857116  4.395440  2.979799
   H ( 15)  3.609359  3.410797  2.263935  4.406353  1.096510  2.496180
             C (  7)   H (  8)   H (  9)   H ( 10)   C ( 11)   H ( 12)
   H (  8)  1.107194
   H (  9)  1.110057  1.787694
   H ( 10)  1.110083  1.787678  1.784828
   C ( 11)  5.094772  5.181186  5.790990  5.713323
   H ( 12)  4.906803  4.898888  5.760366  5.385247  1.079957
   H ( 13)  5.627994  5.519198  6.314812  6.323519  1.079979  1.527385
   H ( 14)  5.869834  6.054300  6.591139  6.368909  1.079945  1.527436
   H ( 15)  2.977331  4.030407  3.076240  3.076221  4.979975  5.109624
             H ( 13)   H ( 14)
   H ( 14)  1.775924
   H ( 15)  5.904731  5.337280
 
 Requested basis set is rimp2-cc-pVTZ
 There are 250 shells and 848 basis functions
 A cutoff of  1.0D-10 yielded   6181 shell pairs
 There are     45253 function pairs (     58193 Cartesian)
 Smallest overlap matrix eigenvalue = 9.46E-05

 Scale SEOQF with 1.000000e+00/1.000000e-01/1.000000e-01

 Standard Electronic Orientation quadrupole field applied
 Nucleus-field energy     =     0.0000000043 hartrees
 Guess from superposition of atomic densities
 Warning:  Energy on first SCF cycle will be non-variational
 SAD guess density has 60.000000 electrons

 -----------------------------------------------------------------------
  General SCF calculation program by
  Eric Jon Sundstrom, Paul Horn, Yuezhi Mao, Dmitri Zuev, Alec White,
  David Stuck, Shaama M.S., Shane Yost, Joonho Lee, David Small,
  Daniel Levine, Susi Lehtola, Hugh Burton, Evgeny Epifanovsky,
  Bang C. Huynh
 -----------------------------------------------------------------------
 Hartree-Fock
 A restricted SCF calculation will be
 performed using DIIS
 SCF converges when DIIS error is below 1.0e-06
 ---------------------------------------
  Cycle       Energy         DIIS error
 ---------------------------------------
    1    -632.1023635659      2.92e-02  
    2    -629.3418104274      1.94e-03  
    3    -629.4121306736      6.95e-04  
    4    -629.4197131099      3.58e-04  
    5    -629.4219346559      6.20e-05  
    6    -629.4220632192      2.56e-05  
    7    -629.4220939789      1.11e-05  
    8    -629.4221026444      5.16e-06  
    9    -629.4221041339      1.69e-06  
   10    -629.4221043236      6.39e-07  Convergence criterion met
 ---------------------------------------
 SCF time:   CPU 144.55s  wall 145.00s 

************** Final PCM Free Energy Summary **************
 G_electrostatic  =      -0.00567570 hartree =      -3.56155383 kcal/mol
 G_cavitation     =       0.00000000 hartree =       0.00000000 kcal/mol
 G_dispersion     =       0.00000000 hartree =       0.00000000 kcal/mol
 G_repulsion      =       0.00000000 hartree =       0.00000000 kcal/mol
 --------------------------------------------------
 Non-electrostatic Free Energy =       0.00000000 hartree =       0.00000000 kcal/mol
 Total                         =      -0.00567570 hartree =      -3.56155383 kcal/mol
 --------------------------------------------------
 SCF Energy (H0 + V/2)                       =    -629.42210432 
 Solute Internal Energy (H0)                 =    -629.41642863 
 Total Free Energy (H0 + V/2 + non-elec)     =    -629.42210432 hartree
                                             = -394968.33171981 kcal/mol
***********************************************************

 SCF   energy in the final basis set =     -629.4221043236
 Total energy in the final basis set =     -629.4221043236


 --------------------------------------------------------------
  Generalized many-body perturbation theory program
  by Joonho Lee, Fazle Rob, Xintian Feng, Evgeny Epifanovsky

 No regularization used 
 (reg. param. = 0.0000e+00)
  (P|Q)^-1/2 Time:  CPU 0.48 s  wall 0.49 s

 In RI-MP2 calculation: 
 # of frozen core orbitals: 11

 Components of the RIMP2 correlation energy:
        aaaa    correlation energy =        -0.1453984274 a.u.
        abab    correlation energy =        -0.8857850984 a.u.
        bbbb    correlation energy =        -0.1453984274 a.u.
        non-Brillouin singles      =        -0.0000000000 a.u.
        total same-spin energy     =        -0.2907968548 a.u.
        total opposite-spin energy =        -0.8857850984 a.u.

 Total  RIMP2   correlation energy =        -1.1765819532 a.u.
        RIMP2         total energy =      -630.5986862768 a.u.

 RI-MP2 Energy Time:  CPU 11.12 s  wall 11.15 s
 
 --------------------------------------------------------------
 
                    Orbital Energies (a.u.)
 --------------------------------------------------------------
 
 Alpha MOs
 -- Occupied --
-91.9791 -11.2840 -11.2498 -11.2472 -11.2266 -11.2241 -11.2202  -8.9787
 -6.6597  -6.6591  -6.6586  -1.1607  -1.0556  -0.9981  -0.9405  -0.8830
 -0.7428  -0.7201  -0.6495  -0.5884  -0.5735  -0.5677  -0.5579  -0.5444
 -0.5076  -0.4900  -0.4670  -0.4542  -0.3373  -0.2909
 -- Virtual --
  0.1096   0.1453   0.1501   0.1749   0.1830   0.1899   0.2070   0.2240
  0.2356   0.2403   0.2528   0.2593   0.2936   0.3247   0.3438   0.3550
  0.3861   0.3908   0.4006   0.4152   0.4402   0.4535   0.4694   0.4897
  0.5050   0.5114   0.5167   0.5330   0.5438   0.5562   0.5675   0.5894
  0.5988   0.6082   0.6132   0.6235   0.6365   0.6393   0.6437   0.6506
  0.6517   0.6631   0.6809   0.7071   0.7264   0.7470   0.7656   0.7897
  0.8058   0.8262   0.8401   0.8590   0.8796   0.8928   0.8996   0.9282
  0.9443   0.9768   0.9991   1.0198   1.0335   1.0586   1.0650   1.0720
  1.0780   1.0946   1.1072   1.1466   1.1569   1.1647   1.1775   1.2138
  1.2315   1.2409   1.2530   1.2596   1.2779   1.2796   1.3178   1.3314
  1.3517   1.3752   1.3976   1.4149   1.4228   1.4406   1.4663   1.4847
  1.4993   1.5033   1.5254   1.5323   1.5445   1.5547   1.5689   1.5722
  1.6024   1.6222   1.6529   1.6795   1.6960   1.6979   1.7172   1.7466
  1.7632   1.7849   1.8134   1.8332   1.8798   1.9179   1.9277   1.9677
  2.0116   2.0381   2.0954   2.1393   2.1815   2.1978   2.2274   2.2520
  2.2719   2.2895   2.3408   2.4131   2.4532   2.4810   2.5314   2.5381
  2.5653   2.5951   2.6350   2.6535   2.6748   2.7074   2.7183   2.7418
  2.7525   2.7606   2.7667   2.7831   2.8094   2.8404   2.8586   2.8958
  2.8999   2.9310   2.9526   2.9749   3.0143   3.0250   3.0448   3.0519
  3.0892   3.0972   3.1146   3.1280   3.1522   3.1606   3.1699   3.1811
  3.2278   3.2454   3.2611   3.2797   3.2952   3.2993   3.3129   3.3269
  3.3346   3.3658   3.3850   3.3922   3.4086   3.4121   3.4339   3.4409
  3.4529   3.4606   3.4872   3.4948   3.5034   3.5275   3.5486   3.5649
  3.5747   3.5889   3.6090   3.6210   3.6314   3.6376   3.6477   3.6796
  3.6931   3.7008   3.7254   3.7391   3.7599   3.7848   3.7928   3.8041
  3.8177   3.8299   3.8551   3.8758   3.8949   3.9324   3.9435   3.9570
  3.9727   3.9772   4.0131   4.0296   4.0620   4.0653   4.1009   4.1163
  4.1218   4.1385   4.1604   4.2093   4.2167   4.2230   4.2437   4.2607
  4.2832   4.2962   4.3238   4.3374   4.3493   4.3771   4.4002   4.4031
  4.4100   4.4194   4.4446   4.4576   4.4706   4.5139   4.5522   4.5795
  4.6040   4.6136   4.6260   4.6599   4.7175   4.7223   4.7518   4.7814
  4.8106   4.8342   4.8820   4.8945   4.9200   4.9418   5.0644   5.1049
  5.1175   5.1471   5.1652   5.1840   5.2140   5.2647   5.2906   5.3281
  5.3728   5.4051   5.4194   5.4416   5.4718   5.5145   5.5503   5.5669
  5.6021   5.6245   5.6313   5.6658   5.7005   5.8185   5.8322   5.8694
  5.9069   6.0383   6.0827   6.1415   6.2277   6.2531   6.3034   6.3731
  6.4609   6.5488   9.1776  11.4233  12.9365  13.8938  14.1649  14.4927
 --------------------------------------------------------------
 
          Ground-State Mulliken Net Atomic Charges

     Atom                 Charge (a.u.)
  ----------------------------------------
      1 C                     0.063035
      2 C                    -0.290869
      3 C                     0.043370
      4 H                     0.174599
      5 C                    -0.276079
      6 S                     0.001935
      7 C                    -0.273984
      8 H                     0.101226
      9 H                     0.107310
     10 H                     0.107036
     11 C                    -0.387945
     12 H                     0.144743
     13 H                     0.156764
     14 H                     0.136219
     15 H                     0.192641
  ----------------------------------------
  Sum of atomic charges =     0.000000

 -----------------------------------------------------------------
                    Cartesian Multipole Moments
 -----------------------------------------------------------------
    Charge (ESU x 10^10)
                -0.0000
    Dipole Moment (Debye)
         X       0.8317      Y      -0.6129      Z       1.7473
       Tot       2.0298
    Quadrupole Moments (Debye-Ang)
        XX     -54.1267     XY       0.2028     YY     -42.2621
        XZ      -0.1851     YZ      -0.5364     ZZ     -48.5896
    Octopole Moments (Debye-Ang^2)
       XXX     -19.7616    XXY     -30.3127    XYY      -0.8798
       YYY     -80.8996    XXZ      -1.9664    XYZ       0.6238
       YYZ      -2.0393    XZZ      -5.5265    YZZ     -25.2566
       ZZZ       0.3791
    Hexadecapole Moments (Debye-Ang^3)
      XXXX     -94.9620   XXXY     -52.8933   XXYY    -161.0009
      XYYY     -47.9026   YYYY    -796.1782   XXXZ     -14.8795
      XXYZ     -29.7950   XYYZ     -10.6494   YYYZ    -105.9181
      XXZZ    -103.7171   XYZZ     -14.1571   YYZZ    -209.3770
      XZZZ     -17.5275   YZZZ     -98.3637   ZZZZ    -484.0522
 -----------------------------------------------------------------
 Total job time:  157.48s(wall), 156.02s(cpu) 
 Sun Jul 10 10:13:30 2022

        *************************************************************
        *                                                           *
        *  Thank you very much for using Q-Chem.  Have a nice day.  *
        *                                                           *
        *************************************************************


remove work dirs ./qchem2248867.0 -- ./qchem2248867.-1
rm -rf ./qchem2248867
You are running Q-Chem version: 5.4.0

#
# job setting
#
local host:  exp-6-19
current dir: /expanse/lustre/scratch/theleonzhang/temp_project/Hydrogenated_Impropers_Test
input file:  Methylthiophene_Phi_10_Theta_210_Methylthiophene_Hydrogenated_Improper_Alternate.qcin
output file: 
nprocs     : 0
nthreads   : 1
#
# qchem installation setting
#
QC:          /cm/shared/apps/spack/cpu/opt/spack/linux-centos8-zen2/gcc-10.2.0/qchem-5.4-akfmr7b3t57bfs6qan3padb2wnb2i7cl
QCAUX:       /cm/shared/apps/spack/cpu/opt/spack/linux-centos8-zen2/gcc-10.2.0/qchem-5.4-akfmr7b3t57bfs6qan3padb2wnb2i7cl/qcaux
QCPROG:      /cm/shared/apps/spack/cpu/opt/spack/linux-centos8-zen2/gcc-10.2.0/qchem-5.4-akfmr7b3t57bfs6qan3padb2wnb2i7cl/exe/qcprog.exe_s
QCPROG_S:    /cm/shared/apps/spack/cpu/opt/spack/linux-centos8-zen2/gcc-10.2.0/qchem-5.4-akfmr7b3t57bfs6qan3padb2wnb2i7cl/exe/qcprog.exe_s
PARALLEL:    -DSERIAL
QCMPI:       mpich
#
# qchem directory setting
#
qcrun:       qchem2462966
QCSCRATCH:   .
QCLOCALSCR:  
QCTMPDIR:    .
QCFILEPREF:  ./qchem2462966
QCSAVEDIR:   
workdirs:    ./qchem2462966
workdir0:    ./qchem2462966
partmpdirs =  
#
# parallel setting
#
QCRSH:           ssh
QCMPI:           mpich
QCMPIRUN:        /cm/shared/apps/spack/cpu/opt/spack/linux-centos8-zen2/gcc-10.2.0/qchem-5.4-akfmr7b3t57bfs6qan3padb2wnb2i7cl/bin/mpi/mpirun_qchem
QCMACHINEFILE:   ./qchem2462966/hostfile

#
# env setting
#
exported envs:   QC QCAUX QCSCRATCH QCRUNNAME QCFILEPREF QCPROG QCPROG_S GUIFILE

Running Job 1 of 1 Methylthiophene_Phi_10_Theta_210_Methylthiophene_Hydrogenated_Improper_Alternate.qcin
qchem Methylthiophene_Phi_10_Theta_210_Methylthiophene_Hydrogenated_Improper_Alternate.qcin_2462966.0 ./qchem2462966/ 0
/cm/shared/apps/spack/cpu/opt/spack/linux-centos8-zen2/gcc-10.2.0/qchem-5.4-akfmr7b3t57bfs6qan3padb2wnb2i7cl/exe/qcprog.exe_s Methylthiophene_Phi_10_Theta_210_Methylthiophene_Hydrogenated_Improper_Alternate.qcin_2462966.0 ./qchem2462966/
                  Welcome to Q-Chem
     A Quantum Leap Into The Future Of Chemistry


 Q-Chem 5.4, Q-Chem, Inc., Pleasanton, CA (2021)

 License issued to: University of California, San Diego (site)

 E. Epifanovsky,  A. T. B. Gilbert,  Xintian Feng,  Joonho Lee,  Yuezhi Mao,  
 N. Mardirossian,  P. Pokhilko,  A. White,  M. Wormit,  M. P. Coons,  
 A. L. Dempwolff,  Zhengting Gan,  D. Hait,  P. R. Horn,  L. D. Jacobson,  
 I. Kaliman,  J. Kussmann,  A. W. Lange,  Ka Un Lao,  D. S. Levine,  Jie Liu,  
 S. C. McKenzie,  A. F. Morrison,  K. Nanda,  F. Plasser,  D. R. Rehn,  
 M. L. Vidal,  Zhi-Qiang You,  Ying Zhu,  B. Alam,  B. Albrecht,  
 A. Aldossary,  E. Alguire,  J. H. Andersen,  D. Barton,  K. Begam,  A. Behn,  
 Y. A. Bernard,  E. J. Berquist,  H. Burton,  A. Carreras,  K. Carter-Fenk,  
 R. Chakraborty,  A. D. Chien,  K. D. Closser,  V. Cofer-Shabica,  
 S. Dasgupta,  Jia Deng,  M. de Wergifosse,  M. Diedenhofen,  Hainam Do,  
 S. Ehlert,  Po-Tung Fang,  S. Fatehi,  Qingguo Feng,  J. Gayvert,  
 Qinghui Ge,  G. Gidofalvi,  M. Goldey,  J. Gomes,  C. Gonzalez-Espinoza,  
 S. Gulania,  A. Gunina,  M. W. D. Hanson-Heine,  P. H. P. Harbach,  
 A. W. Hauser,  M. F. Herbst,  M. Hernandez Vera,  M. Hodecker,  
 Z. C. Holden,  S. Houck,  Xunkun Huang,  Kerwin Hui,  B. C. Huynh,  
 M. Ivanov,  Hyunjun Ji,  Hanjie Jiang,  B. Kaduk,  S. Kaehler,  
 K. Khistyaev,  Jaehoon Kim,  P. Klunzinger,  Z. Koczor-Benda,  
 Joong Hoon Koh,  D. Kosenkov,  L. Koulias,  T. Kowalczyk,  C. M. Krauter,  
 K. Kue,  A. Kunitsa,  T. Kus,  A. Landau,  K. V. Lawler,  D. Lefrancois,  
 S. Lehtola,  Rain Li,  Yi-Pei Li,  Jiashu Liang,  M. Liebenthal,  
 Hung-Hsuan Lin,  You-Sheng Lin,  Fenglai Liu,  Kuan-Yu Liu,  
 M. Loipersberger,  A. Luenser,  A. Manjanath,  P. Manohar,  E. Mansoor,  
 S. F. Manzer,  Shan-Ping Mao,  A. V. Marenich,  T. Markovich,  S. Mason,  
 S. A. Maurer,  P. F. McLaughlin,  M. F. S. J. Menger,  J.-M. Mewes,  
 S. A. Mewes,  P. Morgante,  J. W. Mullinax,  T. S. Nguyen-Beck,  
 K. J. Oosterbaan,  G. Paran,  Alexander C. Paul,  Suranjan K. Paul,  
 F. Pavosevic,  Zheng Pei,  S. Prager,  E. I. Proynov,  E. Ramos,  B. Rana,  
 A. E. Rask,  A. Rettig,  R. M. Richard,  F. Rob,  E. Rossomme,  T. Scheele,  
 M. Scheurer,  M. Schneider,  N. Sergueev,  S. M. Sharada,  W. Skomorowski,  
 D. W. Small,  C. J. Stein,  Yu-Chuan Su,  E. J. Sundstrom,  Zhen Tao,  
 J. Thirman,  T. Tsuchimochi,  N. M. Tubman,  S. P. Veccham,  O. Vydrov,  
 J. Wenzel,  J. Witte,  A. Yamada,  Kun Yao,  S. Yeganeh,  S. R. Yost,  
 A. Zech,  Igor Ying Zhang,  Xing Zhang,  Yu Zhang,  D. Zuev,  
 A. Aspuru-Guzik,  A. T. Bell,  N. A. Besley,  K. B. Bravaya,  B. R. Brooks,  
 D. Casanova,  Jeng-Da Chai,  S. Coriani,  C. J. Cramer,  
 A. E. DePrince, III,  R. A. DiStasio Jr.,  A. Dreuw,  B. D. Dunietz,  
 T. R. Furlani,  W. A. Goddard III,  S. Grimme,  S. Hammes-Schiffer,  
 T. Head-Gordon,  W. J. Hehre,  Chao-Ping Hsu,  T.-C. Jagau,  Yousung Jung,  
 A. Klamt,  Jing Kong,  D. S. Lambrecht,  WanZhen Liang,  N. J. Mayhall,  
 C. W. McCurdy,  J. B. Neaton,  C. Ochsenfeld,  J. A. Parkhill,  R. Peverati,  
 V. A. Rassolov,  Yihan Shao,  L. V. Slipchenko,  T. Stauch,  R. P. Steele,  
 J. E. Subotnik,  A. J. W. Thom,  A. Tkatchenko,  D. G. Truhlar,  
 T. Van Voorhis,  T. A. Wesolowski,  K. B. Whaley,  H. L. Woodcock III,  
 P. M. Zimmerman,  S. Faraji,  P. M. W. Gill,  M. Head-Gordon,  
 J. M. Herbert,  A. I. Krylov

 Contributors to earlier versions of Q-Chem not listed above: 
 R. D. Adamson,  B. Austin,  R. Baer,  J. Baker,  G. J. O. Beran,  
 K. Brandhorst,  S. T. Brown,  E. F. C. Byrd,  A. K. Chakraborty,  
 G. K. L. Chan,  Chun-Min Chang,  Yunqing Chen,  C.-L. Cheng,  
 Siu Hung Chien,  D. M. Chipman,  D. L. Crittenden,  H. Dachsel,  
 R. J. Doerksen,  A. D. Dutoi,  R. G. Edgar,  J. Fosso-Tande,  
 L. Fusti-Molnar,  D. Ghosh,  A. Ghysels,  A. Golubeva-Zadorozhnaya,  
 J. Gonthier,  M. S. Gordon,  S. R. Gwaltney,  G. Hawkins,  J. E. Herr,  
 A. Heyden,  S. Hirata,  E. G. Hohenstein,  G. Kedziora,  F. J. Keil,  
 C. Kelley,  Jihan Kim,  R. A. King,  R. Z. Khaliullin,  P. P. Korambath,  
 W. Kurlancheek,  A. Laurent,  A. M. Lee,  M. S. Lee,  S. V. Levchenko,  
 Ching Yeh Lin,  D. Liotard,  E. Livshits,  R. C. Lochan,  I. Lotan,  
 L. A. Martinez-Martinez,  P. E. Maslen,  N. Nair,  D. P. O'Neill,  
 D. Neuhauser,  E. Neuscamman,  C. M. Oana,  R. Olivares-Amaya,  R. Olson,  
 T. M. Perrine,  B. Peters,  P. A. Pieniazek,  A. Prociuk,  Y. M. Rhee,  
 J. Ritchie,  M. A. Rohrdanz,  E. Rosta,  N. J. Russ,  H. F. Schaefer III,  
 M. W. Schmidt,  N. E. Schultz,  S. Sharma,  N. Shenvi,  C. D. Sherrill,  
 A. C. Simmonett,  A. Sodt,  T. Stein,  D. Stuck,  K. S. Thanthiriwatte,  
 V. Vanovschi,  L. Vogt,  Tao Wang,  A. Warshel,  M. A. Watson,  
 C. F. Williams,  Q. Wu,  X. Xu,  Jun Yang,  W. Zhang,  Yan Zhao

 Please cite Q-Chem as follows:
 Y. Shao et al., Mol. Phys. 113, 184-215 (2015)
 DOI: 10.1080/00268976.2014.952696

 Q-Chem 5.4.0 for Intel X86 EM64T Linux

 Parts of Q-Chem use Armadillo 9.800.1 (Horizon Scraper).
 http://arma.sourceforge.net/

 Q-Chem begins on Sun Jul 10 10:44:23 2022  

 Host: 
0

     Scratch files written to ./qchem2462966//
 May1621 |scratch|qcdevops|jenkins|workspace|build_RNUM    
 Processing $rem in /cm/shared/apps/spack/cpu/opt/spack/linux-centos8-zen2/gcc-10.2.0/qchem-5.4-akfmr7b3t57bfs6qan3padb2wnb2i7cl/config/preferences:
 Processing $rem in /home/theleonzhang/.qchemrc:
 Symmetry turned off for PCM/SM12/SMD calculation
 Core orbitals will be frozen

 Checking the input file for inconsistencies... 	...done.

--------------------------------------------------------------
User input:
--------------------------------------------------------------
$molecule
0 1
C	-0.122301	-0.566010	0.013103
C	0.027699	0.284490	1.112503
C	0.267999	1.647390	0.789803
H	-0.036401	-0.078710	2.149203
C	0.306399	1.864690	-0.599397
S	0.041399	0.362090	-1.473697
C	0.456899	2.718590	1.827703
H	0.382999	2.299390	2.849803
H	-0.308301	3.517890	1.739303
H	1.449399	3.207890	1.739303
C	-0.122301	-2.006710	0.013103
H	0.812899	-2.006410	0.553203
H	-0.531901	-2.710510	0.722503
H	0.351299	-2.525610	-0.807097
H	0.471199	2.799390	-1.148497
$end

$rem
JOBTYPE		SP
EXCHANGE	HF
CORRELATION	pRIMP2
BASIS		cc-pvtz
METHOD		rimp2
AUX_BASIS	rimp2-cc-pvtz
SOLVENT_METHOD	PCM
PURECART	11111
SYMMETRY	false
MEM_TOTAL	110000
SCF_CONVERGENCE = 6
THRESH=10
$end



$solvent
dielectric 4.90
$end
--------------------------------------------------------------
 ----------------------------------------------------------------
             Standard Nuclear Orientation (Angstroms)
    I     Atom           X                Y                Z
 ----------------------------------------------------------------
    1      C      -0.1223010000    -0.5660100000     0.0131030000
    2      C       0.0276990000     0.2844900000     1.1125030000
    3      C       0.2679990000     1.6473900000     0.7898030000
    4      H      -0.0364010000    -0.0787100000     2.1492030000
    5      C       0.3063990000     1.8646900000    -0.5993970000
    6      S       0.0413990000     0.3620900000    -1.4736970000
    7      C       0.4568990000     2.7185900000     1.8277030000
    8      H       0.3829990000     2.2993900000     2.8498030000
    9      H      -0.3083010000     3.5178900000     1.7393030000
   10      H       1.4493990000     3.2078900000     1.7393030000
   11      C      -0.1223010000    -2.0067100000     0.0131030000
   12      H       0.8128990000    -2.0064100000     0.5532030000
   13      H      -0.5319010000    -2.7105100000     0.7225030000
   14      H       0.3512990000    -2.5256100000    -0.8070970000
   15      H       0.4711990000     2.7993900000    -1.1484970000
 ----------------------------------------------------------------
 Nuclear Repulsion Energy =         344.65300610 hartrees
 There are       30 alpha and       30 beta electrons

 Q-Chem warning in module forms1/BasisType.C, line 2236:

 You are not using the predefined 5D/6D in this basis set.

 Requested basis set is cc-pVTZ
 There are 120 shells and 326 basis functions

 Total QAlloc Memory Limit 110000 MB
 Mega-Array Size       188 MB
 MEM_STATIC part       192 MB
 Discretize the solute cavity surface with Lebedev spheres
	Using 110 Lebedev grid points for each H atom
	Using 194 Lebedev grid points for other atoms
	Atomic van der Waals radii will be scaled by 1.20
 Remove points where switching function is < 1.0e-08
 Keep 1069 surface tesserae and discard 1169 interior tesserae
 Molecular Surface Area = 158.661 Angst**2

                       Distance Matrix (Angstroms)
             C (  1)   C (  2)   C (  3)   H (  4)   C (  5)   S (  6)
   C (  2)  1.398045
   C (  3)  2.377969  1.421047
   H (  4)  2.192661  1.100350  2.218118
   C (  5)  2.543077  2.346339  1.406617  3.383654
   S (  6)  1.760324  2.587400  2.612810  3.650447  1.758531
   C (  7)  3.796952  2.573046  1.503459  2.858600  2.577326  4.077373
   H (  8)  4.063584  2.684077  2.163777  2.514378  3.477328  4.749997
   H (  9)  4.437635  3.310687  2.175418  3.630080  2.929239  4.517160
   H ( 10)  4.437604  3.310646  2.175412  3.630063  2.929190  4.517124
   C ( 11)  1.440700  2.545737  3.756068  2.878799  3.942928  2.801533
   H ( 12)  1.800294  2.485473  3.701777  2.642831  4.070681  3.211437
   H ( 13)  2.295626  3.071690  4.431214  3.034364  4.835558  3.820057
   H ( 14)  2.176478  3.418515  4.468888  3.857116  4.395440  2.979799
   H ( 15)  3.609359  3.410797  2.263935  4.406353  1.096510  2.496180
             C (  7)   H (  8)   H (  9)   H ( 10)   C ( 11)   H ( 12)
   H (  8)  1.107194
   H (  9)  1.110057  1.787694
   H ( 10)  1.110083  1.787678  1.784828
   C ( 11)  5.094772  5.181186  5.790990  5.713323
   H ( 12)  4.906803  4.898888  5.760366  5.385247  1.079957
   H ( 13)  5.627994  5.519198  6.314812  6.323519  1.079979  1.527385
   H ( 14)  5.869834  6.054300  6.591139  6.368909  1.079945  1.527436
   H ( 15)  2.977331  4.030407  3.076240  3.076221  4.979975  5.109624
             H ( 13)   H ( 14)
   H ( 14)  1.775924
   H ( 15)  5.904731  5.337280
 
 Requested basis set is rimp2-cc-pVTZ
 There are 250 shells and 848 basis functions
 A cutoff of  1.0D-10 yielded   6181 shell pairs
 There are     45253 function pairs (     58193 Cartesian)
 Smallest overlap matrix eigenvalue = 9.46E-05

 Scale SEOQF with 1.000000e+00/1.000000e-01/1.000000e-01

 Standard Electronic Orientation quadrupole field applied
 Nucleus-field energy     =     0.0000000043 hartrees
 Guess from superposition of atomic densities
 Warning:  Energy on first SCF cycle will be non-variational
 SAD guess density has 60.000000 electrons

 -----------------------------------------------------------------------
  General SCF calculation program by
  Eric Jon Sundstrom, Paul Horn, Yuezhi Mao, Dmitri Zuev, Alec White,
  David Stuck, Shaama M.S., Shane Yost, Joonho Lee, David Small,
  Daniel Levine, Susi Lehtola, Hugh Burton, Evgeny Epifanovsky,
  Bang C. Huynh
 -----------------------------------------------------------------------
 Hartree-Fock
 A restricted SCF calculation will be
 performed using DIIS
 SCF converges when DIIS error is below 1.0e-06
 ---------------------------------------
  Cycle       Energy         DIIS error
 ---------------------------------------
    1    -632.1023635659      2.92e-02  
    2    -629.3418104274      1.94e-03  
    3    -629.4121306736      6.95e-04  
    4    -629.4197131099      3.58e-04  
    5    -629.4219346559      6.20e-05  
    6    -629.4220632192      2.56e-05  
    7    -629.4220939789      1.11e-05  
    8    -629.4221026444      5.16e-06  
    9    -629.4221041339      1.69e-06  
   10    -629.4221043236      6.39e-07  Convergence criterion met
 ---------------------------------------
 SCF time:   CPU 143.46s  wall 144.00s 

************** Final PCM Free Energy Summary **************
 G_electrostatic  =      -0.00567570 hartree =      -3.56155383 kcal/mol
 G_cavitation     =       0.00000000 hartree =       0.00000000 kcal/mol
 G_dispersion     =       0.00000000 hartree =       0.00000000 kcal/mol
 G_repulsion      =       0.00000000 hartree =       0.00000000 kcal/mol
 --------------------------------------------------
 Non-electrostatic Free Energy =       0.00000000 hartree =       0.00000000 kcal/mol
 Total                         =      -0.00567570 hartree =      -3.56155383 kcal/mol
 --------------------------------------------------
 SCF Energy (H0 + V/2)                       =    -629.42210432 
 Solute Internal Energy (H0)                 =    -629.41642863 
 Total Free Energy (H0 + V/2 + non-elec)     =    -629.42210432 hartree
                                             = -394968.33171981 kcal/mol
***********************************************************

 SCF   energy in the final basis set =     -629.4221043236
 Total energy in the final basis set =     -629.4221043236


 --------------------------------------------------------------
  Generalized many-body perturbation theory program
  by Joonho Lee, Fazle Rob, Xintian Feng, Evgeny Epifanovsky

 No regularization used 
 (reg. param. = 0.0000e+00)
  (P|Q)^-1/2 Time:  CPU 0.48 s  wall 0.48 s

 In RI-MP2 calculation: 
 # of frozen core orbitals: 11

 Components of the RIMP2 correlation energy:
        aaaa    correlation energy =        -0.1453984274 a.u.
        abab    correlation energy =        -0.8857850984 a.u.
        bbbb    correlation energy =        -0.1453984274 a.u.
        non-Brillouin singles      =        -0.0000000000 a.u.
        total same-spin energy     =        -0.2907968548 a.u.
        total opposite-spin energy =        -0.8857850984 a.u.

 Total  RIMP2   correlation energy =        -1.1765819532 a.u.
        RIMP2         total energy =      -630.5986862768 a.u.

 RI-MP2 Energy Time:  CPU 11.02 s  wall 11.04 s
 
 --------------------------------------------------------------
 
                    Orbital Energies (a.u.)
 --------------------------------------------------------------
 
 Alpha MOs
 -- Occupied --
-91.9791 -11.2840 -11.2498 -11.2472 -11.2266 -11.2241 -11.2202  -8.9787
 -6.6597  -6.6591  -6.6586  -1.1607  -1.0556  -0.9981  -0.9405  -0.8830
 -0.7428  -0.7201  -0.6495  -0.5884  -0.5735  -0.5677  -0.5579  -0.5444
 -0.5076  -0.4900  -0.4670  -0.4542  -0.3373  -0.2909
 -- Virtual --
  0.1096   0.1453   0.1501   0.1749   0.1830   0.1899   0.2070   0.2240
  0.2356   0.2403   0.2528   0.2593   0.2936   0.3247   0.3438   0.3550
  0.3861   0.3908   0.4006   0.4152   0.4402   0.4535   0.4694   0.4897
  0.5050   0.5114   0.5167   0.5330   0.5438   0.5562   0.5675   0.5894
  0.5988   0.6082   0.6132   0.6235   0.6365   0.6393   0.6437   0.6506
  0.6517   0.6631   0.6809   0.7071   0.7264   0.7470   0.7656   0.7897
  0.8058   0.8262   0.8401   0.8590   0.8796   0.8928   0.8996   0.9282
  0.9443   0.9768   0.9991   1.0198   1.0335   1.0586   1.0650   1.0720
  1.0780   1.0946   1.1072   1.1466   1.1569   1.1647   1.1775   1.2138
  1.2315   1.2409   1.2530   1.2596   1.2779   1.2796   1.3178   1.3314
  1.3517   1.3752   1.3976   1.4149   1.4228   1.4406   1.4663   1.4847
  1.4993   1.5033   1.5254   1.5323   1.5445   1.5547   1.5689   1.5722
  1.6024   1.6222   1.6529   1.6795   1.6960   1.6979   1.7172   1.7466
  1.7632   1.7849   1.8134   1.8332   1.8798   1.9179   1.9277   1.9677
  2.0116   2.0381   2.0954   2.1393   2.1815   2.1978   2.2274   2.2520
  2.2719   2.2895   2.3408   2.4131   2.4532   2.4810   2.5314   2.5381
  2.5653   2.5951   2.6350   2.6535   2.6748   2.7074   2.7183   2.7418
  2.7525   2.7606   2.7667   2.7831   2.8094   2.8404   2.8586   2.8958
  2.8999   2.9310   2.9526   2.9749   3.0143   3.0250   3.0448   3.0519
  3.0892   3.0972   3.1146   3.1280   3.1522   3.1606   3.1699   3.1811
  3.2278   3.2454   3.2611   3.2797   3.2952   3.2993   3.3129   3.3269
  3.3346   3.3658   3.3850   3.3922   3.4086   3.4121   3.4339   3.4409
  3.4529   3.4606   3.4872   3.4948   3.5034   3.5275   3.5486   3.5649
  3.5747   3.5889   3.6090   3.6210   3.6314   3.6376   3.6477   3.6796
  3.6931   3.7008   3.7254   3.7391   3.7599   3.7848   3.7928   3.8041
  3.8177   3.8299   3.8551   3.8758   3.8949   3.9324   3.9435   3.9570
  3.9727   3.9772   4.0131   4.0296   4.0620   4.0653   4.1009   4.1163
  4.1218   4.1385   4.1604   4.2093   4.2167   4.2230   4.2437   4.2607
  4.2832   4.2962   4.3238   4.3374   4.3493   4.3771   4.4002   4.4031
  4.4100   4.4194   4.4446   4.4576   4.4706   4.5139   4.5522   4.5795
  4.6040   4.6136   4.6260   4.6599   4.7175   4.7223   4.7518   4.7814
  4.8106   4.8342   4.8820   4.8945   4.9200   4.9418   5.0644   5.1049
  5.1175   5.1471   5.1652   5.1840   5.2140   5.2647   5.2906   5.3281
  5.3728   5.4051   5.4194   5.4416   5.4718   5.5145   5.5503   5.5669
  5.6021   5.6245   5.6313   5.6658   5.7005   5.8185   5.8322   5.8694
  5.9069   6.0383   6.0827   6.1415   6.2277   6.2531   6.3034   6.3731
  6.4609   6.5488   9.1776  11.4233  12.9365  13.8938  14.1649  14.4927
 --------------------------------------------------------------
 
          Ground-State Mulliken Net Atomic Charges

     Atom                 Charge (a.u.)
  ----------------------------------------
      1 C                     0.063035
      2 C                    -0.290869
      3 C                     0.043370
      4 H                     0.174599
      5 C                    -0.276079
      6 S                     0.001935
      7 C                    -0.273984
      8 H                     0.101226
      9 H                     0.107310
     10 H                     0.107036
     11 C                    -0.387945
     12 H                     0.144743
     13 H                     0.156764
     14 H                     0.136219
     15 H                     0.192641
  ----------------------------------------
  Sum of atomic charges =     0.000000

 -----------------------------------------------------------------
                    Cartesian Multipole Moments
 -----------------------------------------------------------------
    Charge (ESU x 10^10)
                -0.0000
    Dipole Moment (Debye)
         X       0.8317      Y      -0.6129      Z       1.7473
       Tot       2.0298
    Quadrupole Moments (Debye-Ang)
        XX     -54.1267     XY       0.2028     YY     -42.2621
        XZ      -0.1851     YZ      -0.5364     ZZ     -48.5896
    Octopole Moments (Debye-Ang^2)
       XXX     -19.7616    XXY     -30.3127    XYY      -0.8798
       YYY     -80.8996    XXZ      -1.9664    XYZ       0.6238
       YYZ      -2.0393    XZZ      -5.5265    YZZ     -25.2566
       ZZZ       0.3791
    Hexadecapole Moments (Debye-Ang^3)
      XXXX     -94.9620   XXXY     -52.8933   XXYY    -161.0009
      XYYY     -47.9026   YYYY    -796.1782   XXXZ     -14.8795
      XXYZ     -29.7950   XYYZ     -10.6494   YYYZ    -105.9181
      XXZZ    -103.7171   XYZZ     -14.1571   YYZZ    -209.3770
      XZZZ     -17.5275   YZZZ     -98.3637   ZZZZ    -484.0522
 -----------------------------------------------------------------
 Total job time:  155.71s(wall), 154.83s(cpu) 
 Sun Jul 10 10:46:59 2022

        *************************************************************
        *                                                           *
        *  Thank you very much for using Q-Chem.  Have a nice day.  *
        *                                                           *
        *************************************************************


remove work dirs ./qchem2462966.0 -- ./qchem2462966.-1
rm -rf ./qchem2462966
