You are running Q-Chem version: 5.4.0

#
# job setting
#
local host:  exp-5-33
current dir: /expanse/lustre/scratch/theleonzhang/temp_project/Hydrogenated_Impropers_Test
input file:  Methylthiophene_Phi_30_Theta_90_Methylthiophene_Hydrogenated_Improper_Alternate.qcin
output file: 
nprocs     : 0
nthreads   : 1
#
# qchem installation setting
#
QC:          /cm/shared/apps/spack/cpu/opt/spack/linux-centos8-zen2/gcc-10.2.0/qchem-5.4-akfmr7b3t57bfs6qan3padb2wnb2i7cl
QCAUX:       /cm/shared/apps/spack/cpu/opt/spack/linux-centos8-zen2/gcc-10.2.0/qchem-5.4-akfmr7b3t57bfs6qan3padb2wnb2i7cl/qcaux
QCPROG:      /cm/shared/apps/spack/cpu/opt/spack/linux-centos8-zen2/gcc-10.2.0/qchem-5.4-akfmr7b3t57bfs6qan3padb2wnb2i7cl/exe/qcprog.exe_s
QCPROG_S:    /cm/shared/apps/spack/cpu/opt/spack/linux-centos8-zen2/gcc-10.2.0/qchem-5.4-akfmr7b3t57bfs6qan3padb2wnb2i7cl/exe/qcprog.exe_s
PARALLEL:    -DSERIAL
QCMPI:       mpich
#
# qchem directory setting
#
qcrun:       qchem2167690
QCSCRATCH:   .
QCLOCALSCR:  
QCTMPDIR:    .
QCFILEPREF:  ./qchem2167690
QCSAVEDIR:   
workdirs:    ./qchem2167690
workdir0:    ./qchem2167690
partmpdirs =  
#
# parallel setting
#
QCRSH:           ssh
QCMPI:           mpich
QCMPIRUN:        /cm/shared/apps/spack/cpu/opt/spack/linux-centos8-zen2/gcc-10.2.0/qchem-5.4-akfmr7b3t57bfs6qan3padb2wnb2i7cl/bin/mpi/mpirun_qchem
QCMACHINEFILE:   ./qchem2167690/hostfile

#
# env setting
#
exported envs:   QC QCAUX QCSCRATCH QCRUNNAME QCFILEPREF QCPROG QCPROG_S GUIFILE

Running Job 1 of 1 Methylthiophene_Phi_30_Theta_90_Methylthiophene_Hydrogenated_Improper_Alternate.qcin
qchem Methylthiophene_Phi_30_Theta_90_Methylthiophene_Hydrogenated_Improper_Alternate.qcin_2167690.0 ./qchem2167690/ 0
/cm/shared/apps/spack/cpu/opt/spack/linux-centos8-zen2/gcc-10.2.0/qchem-5.4-akfmr7b3t57bfs6qan3padb2wnb2i7cl/exe/qcprog.exe_s Methylthiophene_Phi_30_Theta_90_Methylthiophene_Hydrogenated_Improper_Alternate.qcin_2167690.0 ./qchem2167690/
                  Welcome to Q-Chem
     A Quantum Leap Into The Future Of Chemistry


 Q-Chem 5.4, Q-Chem, Inc., Pleasanton, CA (2021)

 License issued to: University of California, San Diego (site)

 E. Epifanovsky,  A. T. B. Gilbert,  Xintian Feng,  Joonho Lee,  Yuezhi Mao,  
 N. Mardirossian,  P. Pokhilko,  A. White,  M. Wormit,  M. P. Coons,  
 A. L. Dempwolff,  Zhengting Gan,  D. Hait,  P. R. Horn,  L. D. Jacobson,  
 I. Kaliman,  J. Kussmann,  A. W. Lange,  Ka Un Lao,  D. S. Levine,  Jie Liu,  
 S. C. McKenzie,  A. F. Morrison,  K. Nanda,  F. Plasser,  D. R. Rehn,  
 M. L. Vidal,  Zhi-Qiang You,  Ying Zhu,  B. Alam,  B. Albrecht,  
 A. Aldossary,  E. Alguire,  J. H. Andersen,  D. Barton,  K. Begam,  A. Behn,  
 Y. A. Bernard,  E. J. Berquist,  H. Burton,  A. Carreras,  K. Carter-Fenk,  
 R. Chakraborty,  A. D. Chien,  K. D. Closser,  V. Cofer-Shabica,  
 S. Dasgupta,  Jia Deng,  M. de Wergifosse,  M. Diedenhofen,  Hainam Do,  
 S. Ehlert,  Po-Tung Fang,  S. Fatehi,  Qingguo Feng,  J. Gayvert,  
 Qinghui Ge,  G. Gidofalvi,  M. Goldey,  J. Gomes,  C. Gonzalez-Espinoza,  
 S. Gulania,  A. Gunina,  M. W. D. Hanson-Heine,  P. H. P. Harbach,  
 A. W. Hauser,  M. F. Herbst,  M. Hernandez Vera,  M. Hodecker,  
 Z. C. Holden,  S. Houck,  Xunkun Huang,  Kerwin Hui,  B. C. Huynh,  
 M. Ivanov,  Hyunjun Ji,  Hanjie Jiang,  B. Kaduk,  S. Kaehler,  
 K. Khistyaev,  Jaehoon Kim,  P. Klunzinger,  Z. Koczor-Benda,  
 Joong Hoon Koh,  D. Kosenkov,  L. Koulias,  T. Kowalczyk,  C. M. Krauter,  
 K. Kue,  A. Kunitsa,  T. Kus,  A. Landau,  K. V. Lawler,  D. Lefrancois,  
 S. Lehtola,  Rain Li,  Yi-Pei Li,  Jiashu Liang,  M. Liebenthal,  
 Hung-Hsuan Lin,  You-Sheng Lin,  Fenglai Liu,  Kuan-Yu Liu,  
 M. Loipersberger,  A. Luenser,  A. Manjanath,  P. Manohar,  E. Mansoor,  
 S. F. Manzer,  Shan-Ping Mao,  A. V. Marenich,  T. Markovich,  S. Mason,  
 S. A. Maurer,  P. F. McLaughlin,  M. F. S. J. Menger,  J.-M. Mewes,  
 S. A. Mewes,  P. Morgante,  J. W. Mullinax,  T. S. Nguyen-Beck,  
 K. J. Oosterbaan,  G. Paran,  Alexander C. Paul,  Suranjan K. Paul,  
 F. Pavosevic,  Zheng Pei,  S. Prager,  E. I. Proynov,  E. Ramos,  B. Rana,  
 A. E. Rask,  A. Rettig,  R. M. Richard,  F. Rob,  E. Rossomme,  T. Scheele,  
 M. Scheurer,  M. Schneider,  N. Sergueev,  S. M. Sharada,  W. Skomorowski,  
 D. W. Small,  C. J. Stein,  Yu-Chuan Su,  E. J. Sundstrom,  Zhen Tao,  
 J. Thirman,  T. Tsuchimochi,  N. M. Tubman,  S. P. Veccham,  O. Vydrov,  
 J. Wenzel,  J. Witte,  A. Yamada,  Kun Yao,  S. Yeganeh,  S. R. Yost,  
 A. Zech,  Igor Ying Zhang,  Xing Zhang,  Yu Zhang,  D. Zuev,  
 A. Aspuru-Guzik,  A. T. Bell,  N. A. Besley,  K. B. Bravaya,  B. R. Brooks,  
 D. Casanova,  Jeng-Da Chai,  S. Coriani,  C. J. Cramer,  
 A. E. DePrince, III,  R. A. DiStasio Jr.,  A. Dreuw,  B. D. Dunietz,  
 T. R. Furlani,  W. A. Goddard III,  S. Grimme,  S. Hammes-Schiffer,  
 T. Head-Gordon,  W. J. Hehre,  Chao-Ping Hsu,  T.-C. Jagau,  Yousung Jung,  
 A. Klamt,  Jing Kong,  D. S. Lambrecht,  WanZhen Liang,  N. J. Mayhall,  
 C. W. McCurdy,  J. B. Neaton,  C. Ochsenfeld,  J. A. Parkhill,  R. Peverati,  
 V. A. Rassolov,  Yihan Shao,  L. V. Slipchenko,  T. Stauch,  R. P. Steele,  
 J. E. Subotnik,  A. J. W. Thom,  A. Tkatchenko,  D. G. Truhlar,  
 T. Van Voorhis,  T. A. Wesolowski,  K. B. Whaley,  H. L. Woodcock III,  
 P. M. Zimmerman,  S. Faraji,  P. M. W. Gill,  M. Head-Gordon,  
 J. M. Herbert,  A. I. Krylov

 Contributors to earlier versions of Q-Chem not listed above: 
 R. D. Adamson,  B. Austin,  R. Baer,  J. Baker,  G. J. O. Beran,  
 K. Brandhorst,  S. T. Brown,  E. F. C. Byrd,  A. K. Chakraborty,  
 G. K. L. Chan,  Chun-Min Chang,  Yunqing Chen,  C.-L. Cheng,  
 Siu Hung Chien,  D. M. Chipman,  D. L. Crittenden,  H. Dachsel,  
 R. J. Doerksen,  A. D. Dutoi,  R. G. Edgar,  J. Fosso-Tande,  
 L. Fusti-Molnar,  D. Ghosh,  A. Ghysels,  A. Golubeva-Zadorozhnaya,  
 J. Gonthier,  M. S. Gordon,  S. R. Gwaltney,  G. Hawkins,  J. E. Herr,  
 A. Heyden,  S. Hirata,  E. G. Hohenstein,  G. Kedziora,  F. J. Keil,  
 C. Kelley,  Jihan Kim,  R. A. King,  R. Z. Khaliullin,  P. P. Korambath,  
 W. Kurlancheek,  A. Laurent,  A. M. Lee,  M. S. Lee,  S. V. Levchenko,  
 Ching Yeh Lin,  D. Liotard,  E. Livshits,  R. C. Lochan,  I. Lotan,  
 L. A. Martinez-Martinez,  P. E. Maslen,  N. Nair,  D. P. O'Neill,  
 D. Neuhauser,  E. Neuscamman,  C. M. Oana,  R. Olivares-Amaya,  R. Olson,  
 T. M. Perrine,  B. Peters,  P. A. Pieniazek,  A. Prociuk,  Y. M. Rhee,  
 J. Ritchie,  M. A. Rohrdanz,  E. Rosta,  N. J. Russ,  H. F. Schaefer III,  
 M. W. Schmidt,  N. E. Schultz,  S. Sharma,  N. Shenvi,  C. D. Sherrill,  
 A. C. Simmonett,  A. Sodt,  T. Stein,  D. Stuck,  K. S. Thanthiriwatte,  
 V. Vanovschi,  L. Vogt,  Tao Wang,  A. Warshel,  M. A. Watson,  
 C. F. Williams,  Q. Wu,  X. Xu,  Jun Yang,  W. Zhang,  Yan Zhao

 Please cite Q-Chem as follows:
 Y. Shao et al., Mol. Phys. 113, 184-215 (2015)
 DOI: 10.1080/00268976.2014.952696

 Q-Chem 5.4.0 for Intel X86 EM64T Linux

 Parts of Q-Chem use Armadillo 9.800.1 (Horizon Scraper).
 http://arma.sourceforge.net/

 Q-Chem begins on Sun Jul 10 09:48:13 2022  

 Host: 
0

     Scratch files written to ./qchem2167690//
 May1621 |scratch|qcdevops|jenkins|workspace|build_RNUM    
 Processing $rem in /cm/shared/apps/spack/cpu/opt/spack/linux-centos8-zen2/gcc-10.2.0/qchem-5.4-akfmr7b3t57bfs6qan3padb2wnb2i7cl/config/preferences:
 Processing $rem in /home/theleonzhang/.qchemrc:
 Symmetry turned off for PCM/SM12/SMD calculation
 Core orbitals will be frozen

 Checking the input file for inconsistencies... 	...done.

--------------------------------------------------------------
User input:
--------------------------------------------------------------
$molecule
0 1
C	-0.338603	-0.485421	0.019883
C	0.093197	0.262479	1.119283
C	0.785197	1.460979	0.796583
H	-0.091203	-0.056921	2.155983
C	0.895497	1.652079	-0.592617
S	0.132597	0.330679	-1.466917
C	1.329097	2.402979	1.834483
H	1.116297	2.034379	2.856583
H	0.883397	3.415779	1.746083
H	2.429097	2.523379	1.746083
C	-0.338603	-1.926121	0.019883
H	-0.338503	-1.925821	-1.060117
H	0.480597	-2.629921	0.019983
H	-1.285703	-2.445021	0.019883
H	1.370197	2.474079	-1.141717
$end

$rem
JOBTYPE		SP
EXCHANGE	HF
CORRELATION	pRIMP2
BASIS		cc-pvtz
METHOD		rimp2
AUX_BASIS	rimp2-cc-pvtz
SOLVENT_METHOD	PCM
PURECART	11111
SYMMETRY	false
MEM_TOTAL	110000
SCF_CONVERGENCE = 6
THRESH=10
$end



$solvent
dielectric 4.90
$end
--------------------------------------------------------------
 ----------------------------------------------------------------
             Standard Nuclear Orientation (Angstroms)
    I     Atom           X                Y                Z
 ----------------------------------------------------------------
    1      C      -0.3386030000    -0.4854210000     0.0198830000
    2      C       0.0931970000     0.2624790000     1.1192830000
    3      C       0.7851970000     1.4609790000     0.7965830000
    4      H      -0.0912030000    -0.0569210000     2.1559830000
    5      C       0.8954970000     1.6520790000    -0.5926170000
    6      S       0.1325970000     0.3306790000    -1.4669170000
    7      C       1.3290970000     2.4029790000     1.8344830000
    8      H       1.1162970000     2.0343790000     2.8565830000
    9      H       0.8833970000     3.4157790000     1.7460830000
   10      H       2.4290970000     2.5233790000     1.7460830000
   11      C      -0.3386030000    -1.9261210000     0.0198830000
   12      H      -0.3385030000    -1.9258210000    -1.0601170000
   13      H       0.4805970000    -2.6299210000     0.0199830000
   14      H      -1.2857030000    -2.4450210000     0.0198830000
   15      H       1.3701970000     2.4740790000    -1.1417170000
 ----------------------------------------------------------------
 Nuclear Repulsion Energy =         346.28921256 hartrees
 There are       30 alpha and       30 beta electrons

 Q-Chem warning in module forms1/BasisType.C, line 2236:

 You are not using the predefined 5D/6D in this basis set.

 Requested basis set is cc-pVTZ
 There are 120 shells and 326 basis functions

 Total QAlloc Memory Limit 110000 MB
 Mega-Array Size       188 MB
 MEM_STATIC part       192 MB
 Discretize the solute cavity surface with Lebedev spheres
	Using 110 Lebedev grid points for each H atom
	Using 194 Lebedev grid points for other atoms
	Atomic van der Waals radii will be scaled by 1.20
 Remove points where switching function is < 1.0e-08
 Keep 1041 surface tesserae and discard 1197 interior tesserae
 Molecular Surface Area = 157.730 Angst**2

                       Distance Matrix (Angstroms)
             C (  1)   C (  2)   C (  3)   H (  4)   C (  5)   S (  6)
   C (  2)  1.398029
   C (  3)  2.377953  1.421056
   H (  4)  2.192656  1.100348  2.218122
   C (  5)  2.543043  2.346332  1.406614  3.383646
   S (  6)  1.760291  2.587399  2.612833  3.650442  1.758555
   C (  7)  3.796953  2.573072  1.503472  2.858622  2.577339  4.077411
   H (  8)  4.063618  2.684134  2.163796  2.514445  3.477339  4.750043
   H (  9)  4.437613  3.310679  2.175416  3.630084  2.929215  4.517180
   H ( 10)  4.437658  3.310736  2.175466  3.630135  2.929268  4.517213
   C ( 11)  1.440700  2.486986  3.652210  2.849217  3.834276  2.743310
   H ( 12)  1.800320  3.118462  4.022493  3.727901  3.813487  2.340772
   H ( 13)  2.295641  3.118416  4.175087  3.392607  4.345451  3.331235
   H ( 14)  2.176472  3.231192  4.488733  3.419470  4.681775  3.453500
   H ( 15)  3.609425  3.410869  2.263980  4.406413  1.096602  2.496312
             C (  7)   H (  8)   H (  9)   H ( 10)   C ( 11)   H ( 12)
   H (  8)  1.107176
   H (  9)  1.110057  1.787657
   H ( 10)  1.110095  1.787673  1.784815
   C ( 11)  4.981476  5.084207  5.745341  5.517063
   H ( 12)  5.467916  5.756750  6.156337  5.943883  1.080000
   H ( 13)  5.416867  5.496008  6.300171  5.773437  1.080011  1.527514
   H ( 14)  5.799401  5.820781  6.483343  6.439294  1.079933  1.527467
   H ( 15)  2.977333  4.030410  3.076225  3.076213  4.861180  4.720745
             H ( 13)   H ( 14)
   H ( 14)  1.775951
   H ( 15)  5.309590  5.709699
 
 Requested basis set is rimp2-cc-pVTZ
 There are 250 shells and 848 basis functions
 A cutoff of  1.0D-10 yielded   6211 shell pairs
 There are     45517 function pairs (     58533 Cartesian)
 Smallest overlap matrix eigenvalue = 1.30E-04

 Scale SEOQF with 1.000000e-01/1.000000e-01/1.000000e-01

 Standard Electronic Orientation quadrupole field applied
 Nucleus-field energy     =     0.0000000012 hartrees
 Guess from superposition of atomic densities
 Warning:  Energy on first SCF cycle will be non-variational
 SAD guess density has 60.000000 electrons

 -----------------------------------------------------------------------
  General SCF calculation program by
  Eric Jon Sundstrom, Paul Horn, Yuezhi Mao, Dmitri Zuev, Alec White,
  David Stuck, Shaama M.S., Shane Yost, Joonho Lee, David Small,
  Daniel Levine, Susi Lehtola, Hugh Burton, Evgeny Epifanovsky,
  Bang C. Huynh
 -----------------------------------------------------------------------
 Hartree-Fock
 A restricted SCF calculation will be
 performed using DIIS
 SCF converges when DIIS error is below 1.0e-06
 ---------------------------------------
  Cycle       Energy         DIIS error
 ---------------------------------------
    1    -632.1345947095      2.93e-02  
    2    -629.3202900445      1.93e-03  
    3    -629.3907842350      6.64e-04  
    4    -629.3982738358      3.27e-04  
    5    -629.4002494445      6.38e-05  
    6    -629.4003916668      2.61e-05  
    7    -629.4004293832      1.20e-05  
    8    -629.4004402664      4.32e-06  
    9    -629.4004416693      1.90e-06  
   10    -629.4004418298      5.50e-07  Convergence criterion met
 ---------------------------------------
 SCF time:   CPU 143.18s  wall 143.00s 

************** Final PCM Free Energy Summary **************
 G_electrostatic  =      -0.00484754 hartree =      -3.04187416 kcal/mol
 G_cavitation     =       0.00000000 hartree =       0.00000000 kcal/mol
 G_dispersion     =       0.00000000 hartree =       0.00000000 kcal/mol
 G_repulsion      =       0.00000000 hartree =       0.00000000 kcal/mol
 --------------------------------------------------
 Non-electrostatic Free Energy =       0.00000000 hartree =       0.00000000 kcal/mol
 Total                         =      -0.00484754 hartree =      -3.04187416 kcal/mol
 --------------------------------------------------
 SCF Energy (H0 + V/2)                       =    -629.40044183 
 Solute Internal Energy (H0)                 =    -629.39559429 
 Total Free Energy (H0 + V/2 + non-elec)     =    -629.40044183 hartree
                                             = -394954.73829978 kcal/mol
***********************************************************

 SCF   energy in the final basis set =     -629.4004418298
 Total energy in the final basis set =     -629.4004418298


 --------------------------------------------------------------
  Generalized many-body perturbation theory program
  by Joonho Lee, Fazle Rob, Xintian Feng, Evgeny Epifanovsky

 No regularization used 
 (reg. param. = 0.0000e+00)
  (P|Q)^-1/2 Time:  CPU 0.51 s  wall 0.51 s

 In RI-MP2 calculation: 
 # of frozen core orbitals: 11

 Components of the RIMP2 correlation energy:
        aaaa    correlation energy =        -0.1463048392 a.u.
        abab    correlation energy =        -0.8896025795 a.u.
        bbbb    correlation energy =        -0.1463048392 a.u.
        non-Brillouin singles      =        -0.0000000000 a.u.
        total same-spin energy     =        -0.2926096785 a.u.
        total opposite-spin energy =        -0.8896025795 a.u.

 Total  RIMP2   correlation energy =        -1.1822122580 a.u.
        RIMP2         total energy =      -630.5826540878 a.u.

 RI-MP2 Energy Time:  CPU 12.61 s  wall 12.63 s
 
 --------------------------------------------------------------
 
                    Orbital Energies (a.u.)
 --------------------------------------------------------------
 
 Alpha MOs
 -- Occupied --
-91.9787 -11.2657 -11.2644 -11.2473 -11.2351 -11.2272 -11.2123  -8.9789
 -6.6598  -6.6592  -6.6586  -1.1636  -1.0549  -0.9946  -0.9458  -0.8808
 -0.7496  -0.7207  -0.6466  -0.5886  -0.5771  -0.5681  -0.5518  -0.5473
 -0.5133  -0.4746  -0.4646  -0.4415  -0.3368  -0.3047
 -- Virtual --
  0.0890   0.1429   0.1523   0.1743   0.1866   0.1905   0.1966   0.2266
  0.2378   0.2439   0.2463   0.2820   0.2891   0.3070   0.3456   0.3511
  0.3746   0.4040   0.4066   0.4160   0.4405   0.4607   0.4728   0.4750
  0.4868   0.4969   0.5234   0.5312   0.5371   0.5558   0.5723   0.5831
  0.5958   0.6056   0.6135   0.6196   0.6325   0.6412   0.6447   0.6537
  0.6567   0.6631   0.6766   0.6998   0.7380   0.7491   0.7645   0.7803
  0.7918   0.8036   0.8393   0.8587   0.8640   0.8890   0.9026   0.9089
  0.9578   0.9686   0.9999   1.0206   1.0273   1.0407   1.0610   1.0739
  1.0832   1.0930   1.1234   1.1430   1.1487   1.1730   1.1885   1.2236
  1.2310   1.2403   1.2464   1.2672   1.2812   1.2982   1.3112   1.3353
  1.3390   1.3531   1.3931   1.4159   1.4282   1.4371   1.4539   1.4812
  1.4894   1.4985   1.5081   1.5201   1.5525   1.5652   1.5686   1.5961
  1.6035   1.6286   1.6376   1.6599   1.6850   1.6984   1.7089   1.7529
  1.7621   1.7788   1.7936   1.8357   1.8903   1.9244   1.9394   1.9639
  1.9926   2.0407   2.0853   2.1137   2.1804   2.1847   2.2099   2.2304
  2.2544   2.2793   2.3549   2.4182   2.4622   2.4932   2.5398   2.5620
  2.5735   2.5990   2.6313   2.6503   2.6781   2.6999   2.7083   2.7335
  2.7374   2.7546   2.7654   2.7940   2.8280   2.8422   2.8527   2.8777
  2.9043   2.9254   2.9540   2.9708   2.9993   3.0202   3.0464   3.0631
  3.0997   3.1123   3.1216   3.1419   3.1566   3.1618   3.1811   3.1930
  3.2166   3.2447   3.2581   3.2666   3.2683   3.3054   3.3185   3.3290
  3.3503   3.3642   3.3694   3.3816   3.3931   3.3987   3.4223   3.4336
  3.4486   3.4719   3.4761   3.4969   3.5146   3.5434   3.5524   3.5617
  3.5880   3.5944   3.6128   3.6287   3.6330   3.6476   3.6738   3.6962
  3.7190   3.7232   3.7322   3.7465   3.7680   3.7740   3.7959   3.8058
  3.8114   3.8519   3.8782   3.8877   3.8987   3.9179   3.9397   3.9570
  3.9723   3.9824   4.0085   4.0312   4.0427   4.0683   4.0897   4.1044
  4.1213   4.1427   4.1696   4.1825   4.1909   4.2186   4.2449   4.2638
  4.2692   4.2829   4.3137   4.3339   4.3494   4.3619   4.3863   4.4030
  4.4183   4.4292   4.4434   4.4546   4.4902   4.4971   4.5389   4.5728
  4.6000   4.6219   4.6523   4.6855   4.7020   4.7341   4.7676   4.7790
  4.7952   4.8092   4.8554   4.8852   4.9096   4.9486   5.0587   5.0964
  5.1060   5.1598   5.1757   5.1889   5.2348   5.2732   5.2841   5.3039
  5.3641   5.4020   5.4216   5.4393   5.4693   5.5031   5.5489   5.5637
  5.6027   5.6234   5.6317   5.6850   5.7115   5.7950   5.8200   5.8359
  5.9148   5.9871   6.0352   6.1196   6.2273   6.2367   6.2792   6.3448
  6.4249   6.4959   9.1586  11.5008  12.8544  13.8136  14.1891  14.3141
 --------------------------------------------------------------
 
          Ground-State Mulliken Net Atomic Charges

     Atom                 Charge (a.u.)
  ----------------------------------------
      1 C                     0.004137
      2 C                    -0.245484
      3 C                     0.040665
      4 H                     0.179433
      5 C                    -0.243906
      6 S                    -0.001449
      7 C                    -0.271342
      8 H                     0.102037
      9 H                     0.106825
     10 H                     0.105898
     11 C                    -0.355390
     12 H                     0.113111
     13 H                     0.148047
     14 H                     0.121481
     15 H                     0.195937
  ----------------------------------------
  Sum of atomic charges =     0.000000

 -----------------------------------------------------------------
                    Cartesian Multipole Moments
 -----------------------------------------------------------------
    Charge (ESU x 10^10)
                -0.0000
    Dipole Moment (Debye)
         X       0.9424      Y       0.2408      Z       0.9472
       Tot       1.3577
    Quadrupole Moments (Debye-Ang)
        XX     -51.6892     XY       3.7417     YY     -44.8537
        XZ       0.1695     YZ       1.2957     ZZ     -48.6183
    Octopole Moments (Debye-Ang^2)
       XXX     -52.2289    XXY     -22.4495    XYY      -9.0686
       YYY     -68.1658    XXZ      -2.5291    XYZ      -1.9662
       YYZ      -6.8080    XZZ     -15.0308    YZZ     -19.1205
       ZZZ       2.7594
    Hexadecapole Moments (Debye-Ang^3)
      XXXX    -220.8016   XXXY    -136.1647   XXYY    -144.8519
      XYYY    -127.9192   YYYY    -681.7800   XXXZ     -48.1604
      XXYZ     -30.4596   XYYZ     -20.2992   YYYZ     -86.6984
      XXZZ    -121.0575   XYZZ     -39.2837   YYZZ    -196.2979
      XZZZ     -52.2395   YZZZ     -91.0960   ZZZZ    -479.9642
 -----------------------------------------------------------------
 Total job time:  156.78s(wall), 156.17s(cpu) 
 Sun Jul 10 09:50:50 2022

        *************************************************************
        *                                                           *
        *  Thank you very much for using Q-Chem.  Have a nice day.  *
        *                                                           *
        *************************************************************


remove work dirs ./qchem2167690.0 -- ./qchem2167690.-1
rm -rf ./qchem2167690
