You are running Q-Chem version: 5.4.0

#
# job setting
#
local host:  exp-2-29
current dir: /expanse/lustre/scratch/theleonzhang/temp_project/Hydrogenated_Impropers_Test
input file:  Methylthiophene_Phi_40_Theta_320_Methylthiophene_Hydrogenated_Improper_Alternate.qcin
output file: 
nprocs     : 0
nthreads   : 1
#
# qchem installation setting
#
QC:          /cm/shared/apps/spack/cpu/opt/spack/linux-centos8-zen2/gcc-10.2.0/qchem-5.4-akfmr7b3t57bfs6qan3padb2wnb2i7cl
QCAUX:       /cm/shared/apps/spack/cpu/opt/spack/linux-centos8-zen2/gcc-10.2.0/qchem-5.4-akfmr7b3t57bfs6qan3padb2wnb2i7cl/qcaux
QCPROG:      /cm/shared/apps/spack/cpu/opt/spack/linux-centos8-zen2/gcc-10.2.0/qchem-5.4-akfmr7b3t57bfs6qan3padb2wnb2i7cl/exe/qcprog.exe_s
QCPROG_S:    /cm/shared/apps/spack/cpu/opt/spack/linux-centos8-zen2/gcc-10.2.0/qchem-5.4-akfmr7b3t57bfs6qan3padb2wnb2i7cl/exe/qcprog.exe_s
PARALLEL:    -DSERIAL
QCMPI:       mpich
#
# qchem directory setting
#
qcrun:       qchem600695
QCSCRATCH:   .
QCLOCALSCR:  
QCTMPDIR:    .
QCFILEPREF:  ./qchem600695
QCSAVEDIR:   
workdirs:    ./qchem600695
workdir0:    ./qchem600695
partmpdirs =  
#
# parallel setting
#
QCRSH:           ssh
QCMPI:           mpich
QCMPIRUN:        /cm/shared/apps/spack/cpu/opt/spack/linux-centos8-zen2/gcc-10.2.0/qchem-5.4-akfmr7b3t57bfs6qan3padb2wnb2i7cl/bin/mpi/mpirun_qchem
QCMACHINEFILE:   ./qchem600695/hostfile

#
# env setting
#
exported envs:   QC QCAUX QCSCRATCH QCRUNNAME QCFILEPREF QCPROG QCPROG_S GUIFILE

Running Job 1 of 1 Methylthiophene_Phi_40_Theta_320_Methylthiophene_Hydrogenated_Improper_Alternate.qcin
qchem Methylthiophene_Phi_40_Theta_320_Methylthiophene_Hydrogenated_Improper_Alternate.qcin_600695.0 ./qchem600695/ 0
/cm/shared/apps/spack/cpu/opt/spack/linux-centos8-zen2/gcc-10.2.0/qchem-5.4-akfmr7b3t57bfs6qan3padb2wnb2i7cl/exe/qcprog.exe_s Methylthiophene_Phi_40_Theta_320_Methylthiophene_Hydrogenated_Improper_Alternate.qcin_600695.0 ./qchem600695/
                  Welcome to Q-Chem
     A Quantum Leap Into The Future Of Chemistry


 Q-Chem 5.4, Q-Chem, Inc., Pleasanton, CA (2021)

 License issued to: University of California, San Diego (site)

 E. Epifanovsky,  A. T. B. Gilbert,  Xintian Feng,  Joonho Lee,  Yuezhi Mao,  
 N. Mardirossian,  P. Pokhilko,  A. White,  M. Wormit,  M. P. Coons,  
 A. L. Dempwolff,  Zhengting Gan,  D. Hait,  P. R. Horn,  L. D. Jacobson,  
 I. Kaliman,  J. Kussmann,  A. W. Lange,  Ka Un Lao,  D. S. Levine,  Jie Liu,  
 S. C. McKenzie,  A. F. Morrison,  K. Nanda,  F. Plasser,  D. R. Rehn,  
 M. L. Vidal,  Zhi-Qiang You,  Ying Zhu,  B. Alam,  B. Albrecht,  
 A. Aldossary,  E. Alguire,  J. H. Andersen,  D. Barton,  K. Begam,  A. Behn,  
 Y. A. Bernard,  E. J. Berquist,  H. Burton,  A. Carreras,  K. Carter-Fenk,  
 R. Chakraborty,  A. D. Chien,  K. D. Closser,  V. Cofer-Shabica,  
 S. Dasgupta,  Jia Deng,  M. de Wergifosse,  M. Diedenhofen,  Hainam Do,  
 S. Ehlert,  Po-Tung Fang,  S. Fatehi,  Qingguo Feng,  J. Gayvert,  
 Qinghui Ge,  G. Gidofalvi,  M. Goldey,  J. Gomes,  C. Gonzalez-Espinoza,  
 S. Gulania,  A. Gunina,  M. W. D. Hanson-Heine,  P. H. P. Harbach,  
 A. W. Hauser,  M. F. Herbst,  M. Hernandez Vera,  M. Hodecker,  
 Z. C. Holden,  S. Houck,  Xunkun Huang,  Kerwin Hui,  B. C. Huynh,  
 M. Ivanov,  Hyunjun Ji,  Hanjie Jiang,  B. Kaduk,  S. Kaehler,  
 K. Khistyaev,  Jaehoon Kim,  P. Klunzinger,  Z. Koczor-Benda,  
 Joong Hoon Koh,  D. Kosenkov,  L. Koulias,  T. Kowalczyk,  C. M. Krauter,  
 K. Kue,  A. Kunitsa,  T. Kus,  A. Landau,  K. V. Lawler,  D. Lefrancois,  
 S. Lehtola,  Rain Li,  Yi-Pei Li,  Jiashu Liang,  M. Liebenthal,  
 Hung-Hsuan Lin,  You-Sheng Lin,  Fenglai Liu,  Kuan-Yu Liu,  
 M. Loipersberger,  A. Luenser,  A. Manjanath,  P. Manohar,  E. Mansoor,  
 S. F. Manzer,  Shan-Ping Mao,  A. V. Marenich,  T. Markovich,  S. Mason,  
 S. A. Maurer,  P. F. McLaughlin,  M. F. S. J. Menger,  J.-M. Mewes,  
 S. A. Mewes,  P. Morgante,  J. W. Mullinax,  T. S. Nguyen-Beck,  
 K. J. Oosterbaan,  G. Paran,  Alexander C. Paul,  Suranjan K. Paul,  
 F. Pavosevic,  Zheng Pei,  S. Prager,  E. I. Proynov,  E. Ramos,  B. Rana,  
 A. E. Rask,  A. Rettig,  R. M. Richard,  F. Rob,  E. Rossomme,  T. Scheele,  
 M. Scheurer,  M. Schneider,  N. Sergueev,  S. M. Sharada,  W. Skomorowski,  
 D. W. Small,  C. J. Stein,  Yu-Chuan Su,  E. J. Sundstrom,  Zhen Tao,  
 J. Thirman,  T. Tsuchimochi,  N. M. Tubman,  S. P. Veccham,  O. Vydrov,  
 J. Wenzel,  J. Witte,  A. Yamada,  Kun Yao,  S. Yeganeh,  S. R. Yost,  
 A. Zech,  Igor Ying Zhang,  Xing Zhang,  Yu Zhang,  D. Zuev,  
 A. Aspuru-Guzik,  A. T. Bell,  N. A. Besley,  K. B. Bravaya,  B. R. Brooks,  
 D. Casanova,  Jeng-Da Chai,  S. Coriani,  C. J. Cramer,  
 A. E. DePrince, III,  R. A. DiStasio Jr.,  A. Dreuw,  B. D. Dunietz,  
 T. R. Furlani,  W. A. Goddard III,  S. Grimme,  S. Hammes-Schiffer,  
 T. Head-Gordon,  W. J. Hehre,  Chao-Ping Hsu,  T.-C. Jagau,  Yousung Jung,  
 A. Klamt,  Jing Kong,  D. S. Lambrecht,  WanZhen Liang,  N. J. Mayhall,  
 C. W. McCurdy,  J. B. Neaton,  C. Ochsenfeld,  J. A. Parkhill,  R. Peverati,  
 V. A. Rassolov,  Yihan Shao,  L. V. Slipchenko,  T. Stauch,  R. P. Steele,  
 J. E. Subotnik,  A. J. W. Thom,  A. Tkatchenko,  D. G. Truhlar,  
 T. Van Voorhis,  T. A. Wesolowski,  K. B. Whaley,  H. L. Woodcock III,  
 P. M. Zimmerman,  S. Faraji,  P. M. W. Gill,  M. Head-Gordon,  
 J. M. Herbert,  A. I. Krylov

 Contributors to earlier versions of Q-Chem not listed above: 
 R. D. Adamson,  B. Austin,  R. Baer,  J. Baker,  G. J. O. Beran,  
 K. Brandhorst,  S. T. Brown,  E. F. C. Byrd,  A. K. Chakraborty,  
 G. K. L. Chan,  Chun-Min Chang,  Yunqing Chen,  C.-L. Cheng,  
 Siu Hung Chien,  D. M. Chipman,  D. L. Crittenden,  H. Dachsel,  
 R. J. Doerksen,  A. D. Dutoi,  R. G. Edgar,  J. Fosso-Tande,  
 L. Fusti-Molnar,  D. Ghosh,  A. Ghysels,  A. Golubeva-Zadorozhnaya,  
 J. Gonthier,  M. S. Gordon,  S. R. Gwaltney,  G. Hawkins,  J. E. Herr,  
 A. Heyden,  S. Hirata,  E. G. Hohenstein,  G. Kedziora,  F. J. Keil,  
 C. Kelley,  Jihan Kim,  R. A. King,  R. Z. Khaliullin,  P. P. Korambath,  
 W. Kurlancheek,  A. Laurent,  A. M. Lee,  M. S. Lee,  S. V. Levchenko,  
 Ching Yeh Lin,  D. Liotard,  E. Livshits,  R. C. Lochan,  I. Lotan,  
 L. A. Martinez-Martinez,  P. E. Maslen,  N. Nair,  D. P. O'Neill,  
 D. Neuhauser,  E. Neuscamman,  C. M. Oana,  R. Olivares-Amaya,  R. Olson,  
 T. M. Perrine,  B. Peters,  P. A. Pieniazek,  A. Prociuk,  Y. M. Rhee,  
 J. Ritchie,  M. A. Rohrdanz,  E. Rosta,  N. J. Russ,  H. F. Schaefer III,  
 M. W. Schmidt,  N. E. Schultz,  S. Sharma,  N. Shenvi,  C. D. Sherrill,  
 A. C. Simmonett,  A. Sodt,  T. Stein,  D. Stuck,  K. S. Thanthiriwatte,  
 V. Vanovschi,  L. Vogt,  Tao Wang,  A. Warshel,  M. A. Watson,  
 C. F. Williams,  Q. Wu,  X. Xu,  Jun Yang,  W. Zhang,  Yan Zhao

 Please cite Q-Chem as follows:
 Y. Shao et al., Mol. Phys. 113, 184-215 (2015)
 DOI: 10.1080/00268976.2014.952696

 Q-Chem 5.4.0 for Intel X86 EM64T Linux

 Parts of Q-Chem use Armadillo 9.800.1 (Horizon Scraper).
 http://arma.sourceforge.net/

 Q-Chem begins on Sun Jul 10 10:53:30 2022  

 Host: 
0

     Scratch files written to ./qchem600695//
 May1621 |scratch|qcdevops|jenkins|workspace|build_RNUM    
 Processing $rem in /cm/shared/apps/spack/cpu/opt/spack/linux-centos8-zen2/gcc-10.2.0/qchem-5.4-akfmr7b3t57bfs6qan3padb2wnb2i7cl/config/preferences:
 Processing $rem in /home/theleonzhang/.qchemrc:
 Symmetry turned off for PCM/SM12/SMD calculation
 Core orbitals will be frozen

 Checking the input file for inconsistencies... 	...done.

--------------------------------------------------------------
User input:
--------------------------------------------------------------
$molecule
0 1
C	-0.440127	-0.417594	0.017710
C	0.114973	0.243906	1.117110
C	1.004573	1.304106	0.794410
H	-0.122027	-0.038594	2.153810
C	1.146473	1.473106	-0.594790
S	0.165673	0.304306	-1.469090
C	1.703773	2.137306	1.832310
H	1.430173	1.811306	2.854410
H	1.440773	3.212106	1.743910
H	2.807973	2.064906	1.743910
C	-0.440127	-1.858294	0.017710
H	0.387273	-1.858494	-0.676390
H	-0.966627	-2.562094	-0.609890
H	0.168673	-2.377194	0.743210
H	1.756573	2.200206	-1.143890
$end

$rem
JOBTYPE		SP
EXCHANGE	HF
CORRELATION	pRIMP2
BASIS		cc-pvtz
METHOD		rimp2
AUX_BASIS	rimp2-cc-pvtz
SOLVENT_METHOD	PCM
PURECART	11111
SYMMETRY	false
MEM_TOTAL	110000
SCF_CONVERGENCE = 6
THRESH=10
$end



$solvent
dielectric 4.90
$end
--------------------------------------------------------------
 ----------------------------------------------------------------
             Standard Nuclear Orientation (Angstroms)
    I     Atom           X                Y                Z
 ----------------------------------------------------------------
    1      C      -0.4401270000    -0.4175940000     0.0177100000
    2      C       0.1149730000     0.2439060000     1.1171100000
    3      C       1.0045730000     1.3041060000     0.7944100000
    4      H      -0.1220270000    -0.0385940000     2.1538100000
    5      C       1.1464730000     1.4731060000    -0.5947900000
    6      S       0.1656730000     0.3043060000    -1.4690900000
    7      C       1.7037730000     2.1373060000     1.8323100000
    8      H       1.4301730000     1.8113060000     2.8544100000
    9      H       1.4407730000     3.2121060000     1.7439100000
   10      H       2.8079730000     2.0649060000     1.7439100000
   11      C      -0.4401270000    -1.8582940000     0.0177100000
   12      H       0.3872730000    -1.8584940000    -0.6763900000
   13      H      -0.9666270000    -2.5620940000    -0.6098900000
   14      H       0.1686730000    -2.3771940000     0.7432100000
   15      H       1.7565730000     2.2002060000    -1.1438900000
 ----------------------------------------------------------------
 Nuclear Repulsion Energy =         348.08710257 hartrees
 There are       30 alpha and       30 beta electrons

 Q-Chem warning in module forms1/BasisType.C, line 2236:

 You are not using the predefined 5D/6D in this basis set.

 Requested basis set is cc-pVTZ
 There are 120 shells and 326 basis functions

 Total QAlloc Memory Limit 110000 MB
 Mega-Array Size       188 MB
 MEM_STATIC part       192 MB
 Discretize the solute cavity surface with Lebedev spheres
	Using 110 Lebedev grid points for each H atom
	Using 194 Lebedev grid points for other atoms
	Atomic van der Waals radii will be scaled by 1.20
 Remove points where switching function is < 1.0e-08
 Keep 1047 surface tesserae and discard 1191 interior tesserae
 Molecular Surface Area = 157.052 Angst**2

                       Distance Matrix (Angstroms)
             C (  1)   C (  2)   C (  3)   H (  4)   C (  5)   S (  6)
   C (  2)  1.397998
   C (  3)  2.377955  1.421108
   H (  4)  2.192659  1.100328  2.218116
   C (  5)  2.543069  2.346386  1.406618  3.383656
   S (  6)  1.760315  2.587402  2.612812  3.650446  1.758540
   C (  7)  3.796919  2.573084  1.503442  2.858575  2.577316  4.077362
   H (  8)  4.063605  2.684158  2.163790  2.514417  3.477333  4.750017
   H (  9)  4.437598  3.310715  2.175382  3.630071  2.929207  4.517140
   H ( 10)  4.437649  3.310766  2.175458  3.630101  2.929220  4.517171
   C ( 11)  1.440700  2.436403  3.562470  2.824078  3.740412  2.693401
   H ( 12)  1.800711  2.776846  3.542083  3.403154  3.417982  2.314127
   H ( 13)  2.295640  3.467856  4.561271  3.836592  4.555026  3.199465
   H ( 14)  2.176470  2.648179  3.775357  2.746516  4.191795  3.476309
   H ( 15)  3.609388  3.410877  2.263958  4.406380  1.096543  2.496228
             C (  7)   H (  8)   H (  9)   H ( 10)   C ( 11)   H ( 12)
   H (  8)  1.107168
   H (  9)  1.110035  1.787614
   H ( 10)  1.110096  1.787696  1.784742
   C ( 11)  4.884045  5.001085  5.676840  5.377864
   H ( 12)  4.898282  5.198232  5.716529  5.206794  1.079984
   H ( 13)  5.931251  6.072286  6.684111  6.418497  1.080009  1.527259
   H ( 14)  4.891153  4.857168  5.818927  5.263037  1.079928  1.527121
   H ( 15)  2.977333  4.030407  3.076209  3.076221  4.758805  4.308896
             H ( 13)   H ( 14)
   H ( 14)  1.775943
   H ( 15)  5.511849  5.199535
 
 Requested basis set is rimp2-cc-pVTZ
 There are 250 shells and 848 basis functions
 A cutoff of  1.0D-10 yielded   6279 shell pairs
 There are     46201 function pairs (     59465 Cartesian)
 Smallest overlap matrix eigenvalue = 1.22E-04

 Scale SEOQF with 1.000000e-01/1.000000e-01/1.000000e-01

 Standard Electronic Orientation quadrupole field applied
 Nucleus-field energy     =     0.0000000002 hartrees
 Guess from superposition of atomic densities
 Warning:  Energy on first SCF cycle will be non-variational
 SAD guess density has 60.000000 electrons

 -----------------------------------------------------------------------
  General SCF calculation program by
  Eric Jon Sundstrom, Paul Horn, Yuezhi Mao, Dmitri Zuev, Alec White,
  David Stuck, Shaama M.S., Shane Yost, Joonho Lee, David Small,
  Daniel Levine, Susi Lehtola, Hugh Burton, Evgeny Epifanovsky,
  Bang C. Huynh
 -----------------------------------------------------------------------
 Hartree-Fock
 A restricted SCF calculation will be
 performed using DIIS
 SCF converges when DIIS error is below 1.0e-06
 ---------------------------------------
  Cycle       Energy         DIIS error
 ---------------------------------------
    1    -632.1636869469      2.94e-02  
    2    -629.3098159734      1.93e-03  
    3    -629.3803168470      6.58e-04  
    4    -629.3876687524      3.30e-04  
    5    -629.3896226291      6.47e-05  
    6    -629.3897647127      2.63e-05  
    7    -629.3898028343      1.22e-05  
    8    -629.3898138070      4.95e-06  
    9    -629.3898154683      1.94e-06  
   10    -629.3898156892      6.19e-07  Convergence criterion met
 ---------------------------------------
 SCF time:   CPU 148.22s  wall 149.00s 

************** Final PCM Free Energy Summary **************
 G_electrostatic  =      -0.00516985 hartree =      -3.24412877 kcal/mol
 G_cavitation     =       0.00000000 hartree =       0.00000000 kcal/mol
 G_dispersion     =       0.00000000 hartree =       0.00000000 kcal/mol
 G_repulsion      =       0.00000000 hartree =       0.00000000 kcal/mol
 --------------------------------------------------
 Non-electrostatic Free Energy =       0.00000000 hartree =       0.00000000 kcal/mol
 Total                         =      -0.00516985 hartree =      -3.24412877 kcal/mol
 --------------------------------------------------
 SCF Energy (H0 + V/2)                       =    -629.38981569 
 Solute Internal Energy (H0)                 =    -629.38464584 
 Total Free Energy (H0 + V/2 + non-elec)     =    -629.38981569 hartree
                                             = -394948.07029593 kcal/mol
***********************************************************

 SCF   energy in the final basis set =     -629.3898156892
 Total energy in the final basis set =     -629.3898156892


 --------------------------------------------------------------
  Generalized many-body perturbation theory program
  by Joonho Lee, Fazle Rob, Xintian Feng, Evgeny Epifanovsky

 No regularization used 
 (reg. param. = 0.0000e+00)
  (P|Q)^-1/2 Time:  CPU 0.48 s  wall 0.49 s

 In RI-MP2 calculation: 
 # of frozen core orbitals: 11

 Components of the RIMP2 correlation energy:
        aaaa    correlation energy =        -0.1463890117 a.u.
        abab    correlation energy =        -0.8904009016 a.u.
        bbbb    correlation energy =        -0.1463890117 a.u.
        non-Brillouin singles      =        -0.0000000000 a.u.
        total same-spin energy     =        -0.2927780234 a.u.
        total opposite-spin energy =        -0.8904009016 a.u.

 Total  RIMP2   correlation energy =        -1.1831789250 a.u.
        RIMP2         total energy =      -630.5729946142 a.u.

 RI-MP2 Energy Time:  CPU 11.38 s  wall 11.42 s
 
 --------------------------------------------------------------
 
                    Orbital Energies (a.u.)
 --------------------------------------------------------------
 
 Alpha MOs
 -- Occupied --
-91.9726 -11.2708 -11.2634 -11.2478 -11.2363 -11.2277 -11.2141  -8.9737
 -6.6546  -6.6539  -6.6534  -1.1675  -1.0570  -0.9949  -0.9427  -0.8799
 -0.7493  -0.7226  -0.6449  -0.5894  -0.5808  -0.5654  -0.5509  -0.5479
 -0.5108  -0.4895  -0.4614  -0.4436  -0.3393  -0.2924
 -- Virtual --
  0.0844   0.1441   0.1561   0.1763   0.1860   0.1902   0.2069   0.2206
  0.2261   0.2468   0.2512   0.2569   0.2919   0.3195   0.3453   0.3504
  0.3707   0.4010   0.4084   0.4262   0.4348   0.4545   0.4646   0.4690
  0.4834   0.4903   0.5174   0.5367   0.5466   0.5542   0.5607   0.5851
  0.5937   0.6016   0.6049   0.6194   0.6289   0.6376   0.6434   0.6485
  0.6579   0.6630   0.6846   0.6970   0.7272   0.7376   0.7582   0.7870
  0.8056   0.8064   0.8299   0.8594   0.8752   0.8808   0.8913   0.9399
  0.9536   0.9626   1.0014   1.0352   1.0408   1.0502   1.0629   1.0770
  1.0832   1.0930   1.1292   1.1414   1.1706   1.1915   1.2016   1.2173
  1.2240   1.2399   1.2494   1.2633   1.2724   1.2981   1.3032   1.3263
  1.3596   1.3957   1.4029   1.4131   1.4196   1.4285   1.4491   1.4746
  1.4795   1.4985   1.5067   1.5219   1.5505   1.5618   1.5624   1.5684
  1.5866   1.6360   1.6475   1.6711   1.6846   1.7011   1.7145   1.7389
  1.7640   1.7745   1.7995   1.8327   1.9031   1.9191   1.9428   1.9647
  1.9783   2.0542   2.1101   2.1294   2.1530   2.1898   2.2020   2.2102
  2.2683   2.2786   2.3585   2.4138   2.4386   2.4870   2.5138   2.5411
  2.5562   2.5838   2.6428   2.6492   2.6689   2.6791   2.7109   2.7223
  2.7515   2.7697   2.7919   2.8028   2.8289   2.8330   2.8410   2.9043
  2.9205   2.9434   2.9722   2.9797   3.0018   3.0355   3.0625   3.0747
  3.0885   3.1022   3.1123   3.1459   3.1592   3.1615   3.1808   3.1939
  3.2266   3.2338   3.2529   3.2695   3.2900   3.2980   3.3195   3.3277
  3.3476   3.3582   3.3597   3.3875   3.4028   3.4131   3.4174   3.4324
  3.4531   3.4813   3.4885   3.5003   3.5125   3.5296   3.5357   3.5569
  3.5766   3.5896   3.6078   3.6205   3.6321   3.6553   3.6727   3.6853
  3.7122   3.7204   3.7383   3.7469   3.7637   3.7746   3.7925   3.8018
  3.8162   3.8450   3.8691   3.8919   3.9020   3.9106   3.9323   3.9471
  3.9799   4.0142   4.0266   4.0482   4.0505   4.0616   4.0873   4.1067
  4.1427   4.1664   4.1771   4.1939   4.2239   4.2358   4.2424   4.2790
  4.2861   4.2997   4.3189   4.3370   4.3584   4.3718   4.3908   4.4026
  4.4168   4.4296   4.4523   4.4809   4.5031   4.5280   4.5594   4.5763
  4.6040   4.6411   4.6528   4.6789   4.7029   4.7462   4.7510   4.7880
  4.7954   4.8121   4.8689   4.8815   4.9133   4.9413   5.0323   5.0963
  5.1113   5.1198   5.1628   5.1882   5.2180   5.2612   5.2890   5.3249
  5.3679   5.3976   5.4229   5.4489   5.4828   5.5066   5.5473   5.5601
  5.5894   5.6181   5.6243   5.6558   5.6975   5.8096   5.8438   5.8556
  5.9284   5.9493   6.0708   6.1257   6.2289   6.2298   6.2734   6.3519
  6.4601   6.4730   9.2896  11.4833  12.8318  13.6025  14.1845  14.4320
 --------------------------------------------------------------
 
          Ground-State Mulliken Net Atomic Charges

     Atom                 Charge (a.u.)
  ----------------------------------------
      1 C                     0.017805
      2 C                    -0.266151
      3 C                     0.037145
      4 H                     0.180332
      5 C                    -0.239583
      6 S                    -0.007077
      7 C                    -0.269465
      8 H                     0.101573
      9 H                     0.107911
     10 H                     0.106236
     11 C                    -0.375476
     12 H                     0.138283
     13 H                     0.139319
     14 H                     0.135447
     15 H                     0.193699
  ----------------------------------------
  Sum of atomic charges =     0.000000

 -----------------------------------------------------------------
                    Cartesian Multipole Moments
 -----------------------------------------------------------------
    Charge (ESU x 10^10)
                -0.0000
    Dipole Moment (Debye)
         X       1.6937      Y      -0.1774      Z       1.2174
       Tot       2.0933
    Quadrupole Moments (Debye-Ang)
        XX     -51.2147     XY       3.5229     YY     -46.3508
        XZ       0.4317     YZ       1.1195     ZZ     -48.4094
    Octopole Moments (Debye-Ang^2)
       XXX     -64.9542    XXY     -14.8756    XYY     -13.4962
       YYY     -61.6318    XXZ      -3.4594    XYZ      -3.2134
       YYZ      -5.6144    XZZ     -19.6896    YZZ     -17.9302
       ZZZ       2.7144
    Hexadecapole Moments (Debye-Ang^3)
      XXXX    -307.6952   XXXY    -152.6190   XXYY    -143.9592
      XYYY    -148.8364   YYYY    -587.8139   XXXZ     -63.0476
      XXYZ     -27.4741   XYYZ     -21.2727   YYYZ     -73.0453
      XXZZ    -132.2086   XYZZ     -43.7591   YYZZ    -177.2275
      XZZZ     -66.7775   YZZZ     -78.0076   ZZZZ    -482.5244
 -----------------------------------------------------------------
 Total job time:  161.87s(wall), 159.98s(cpu) 
 Sun Jul 10 10:56:11 2022

        *************************************************************
        *                                                           *
        *  Thank you very much for using Q-Chem.  Have a nice day.  *
        *                                                           *
        *************************************************************


remove work dirs ./qchem600695.0 -- ./qchem600695.-1
rm -rf ./qchem600695
