You are running Q-Chem version: 5.4.0

#
# job setting
#
local host:  exp-7-01
current dir: /expanse/lustre/scratch/theleonzhang/temp_project/Hydrogenated_Impropers_Test
input file:  Methylthiophene_Phi_40_Theta_110_Methylthiophene_Hydrogenated_Improper.qcin
output file: 
nprocs     : 0
nthreads   : 1
#
# qchem installation setting
#
QC:          /cm/shared/apps/spack/cpu/opt/spack/linux-centos8-zen2/gcc-10.2.0/qchem-5.4-akfmr7b3t57bfs6qan3padb2wnb2i7cl
QCAUX:       /cm/shared/apps/spack/cpu/opt/spack/linux-centos8-zen2/gcc-10.2.0/qchem-5.4-akfmr7b3t57bfs6qan3padb2wnb2i7cl/qcaux
QCPROG:      /cm/shared/apps/spack/cpu/opt/spack/linux-centos8-zen2/gcc-10.2.0/qchem-5.4-akfmr7b3t57bfs6qan3padb2wnb2i7cl/exe/qcprog.exe_s
QCPROG_S:    /cm/shared/apps/spack/cpu/opt/spack/linux-centos8-zen2/gcc-10.2.0/qchem-5.4-akfmr7b3t57bfs6qan3padb2wnb2i7cl/exe/qcprog.exe_s
PARALLEL:    -DSERIAL
QCMPI:       mpich
#
# qchem directory setting
#
qcrun:       qchem898590
QCSCRATCH:   .
QCLOCALSCR:  
QCTMPDIR:    .
QCFILEPREF:  ./qchem898590
QCSAVEDIR:   
workdirs:    ./qchem898590
workdir0:    ./qchem898590
partmpdirs =  
#
# parallel setting
#
QCRSH:           ssh
QCMPI:           mpich
QCMPIRUN:        /cm/shared/apps/spack/cpu/opt/spack/linux-centos8-zen2/gcc-10.2.0/qchem-5.4-akfmr7b3t57bfs6qan3padb2wnb2i7cl/bin/mpi/mpirun_qchem
QCMACHINEFILE:   ./qchem898590/hostfile

#
# env setting
#
exported envs:   QC QCAUX QCSCRATCH QCRUNNAME QCFILEPREF QCPROG QCPROG_S GUIFILE

Running Job 1 of 1 Methylthiophene_Phi_40_Theta_110_Methylthiophene_Hydrogenated_Improper.qcin
qchem Methylthiophene_Phi_40_Theta_110_Methylthiophene_Hydrogenated_Improper.qcin_898590.0 ./qchem898590/ 0
/cm/shared/apps/spack/cpu/opt/spack/linux-centos8-zen2/gcc-10.2.0/qchem-5.4-akfmr7b3t57bfs6qan3padb2wnb2i7cl/exe/qcprog.exe_s Methylthiophene_Phi_40_Theta_110_Methylthiophene_Hydrogenated_Improper.qcin_898590.0 ./qchem898590/
                  Welcome to Q-Chem
     A Quantum Leap Into The Future Of Chemistry


 Q-Chem 5.4, Q-Chem, Inc., Pleasanton, CA (2021)

 License issued to: University of California, San Diego (site)

 E. Epifanovsky,  A. T. B. Gilbert,  Xintian Feng,  Joonho Lee,  Yuezhi Mao,  
 N. Mardirossian,  P. Pokhilko,  A. White,  M. Wormit,  M. P. Coons,  
 A. L. Dempwolff,  Zhengting Gan,  D. Hait,  P. R. Horn,  L. D. Jacobson,  
 I. Kaliman,  J. Kussmann,  A. W. Lange,  Ka Un Lao,  D. S. Levine,  Jie Liu,  
 S. C. McKenzie,  A. F. Morrison,  K. Nanda,  F. Plasser,  D. R. Rehn,  
 M. L. Vidal,  Zhi-Qiang You,  Ying Zhu,  B. Alam,  B. Albrecht,  
 A. Aldossary,  E. Alguire,  J. H. Andersen,  D. Barton,  K. Begam,  A. Behn,  
 Y. A. Bernard,  E. J. Berquist,  H. Burton,  A. Carreras,  K. Carter-Fenk,  
 R. Chakraborty,  A. D. Chien,  K. D. Closser,  V. Cofer-Shabica,  
 S. Dasgupta,  Jia Deng,  M. de Wergifosse,  M. Diedenhofen,  Hainam Do,  
 S. Ehlert,  Po-Tung Fang,  S. Fatehi,  Qingguo Feng,  J. Gayvert,  
 Qinghui Ge,  G. Gidofalvi,  M. Goldey,  J. Gomes,  C. Gonzalez-Espinoza,  
 S. Gulania,  A. Gunina,  M. W. D. Hanson-Heine,  P. H. P. Harbach,  
 A. W. Hauser,  M. F. Herbst,  M. Hernandez Vera,  M. Hodecker,  
 Z. C. Holden,  S. Houck,  Xunkun Huang,  Kerwin Hui,  B. C. Huynh,  
 M. Ivanov,  Hyunjun Ji,  Hanjie Jiang,  B. Kaduk,  S. Kaehler,  
 K. Khistyaev,  Jaehoon Kim,  P. Klunzinger,  Z. Koczor-Benda,  
 Joong Hoon Koh,  D. Kosenkov,  L. Koulias,  T. Kowalczyk,  C. M. Krauter,  
 K. Kue,  A. Kunitsa,  T. Kus,  A. Landau,  K. V. Lawler,  D. Lefrancois,  
 S. Lehtola,  Rain Li,  Yi-Pei Li,  Jiashu Liang,  M. Liebenthal,  
 Hung-Hsuan Lin,  You-Sheng Lin,  Fenglai Liu,  Kuan-Yu Liu,  
 M. Loipersberger,  A. Luenser,  A. Manjanath,  P. Manohar,  E. Mansoor,  
 S. F. Manzer,  Shan-Ping Mao,  A. V. Marenich,  T. Markovich,  S. Mason,  
 S. A. Maurer,  P. F. McLaughlin,  M. F. S. J. Menger,  J.-M. Mewes,  
 S. A. Mewes,  P. Morgante,  J. W. Mullinax,  T. S. Nguyen-Beck,  
 K. J. Oosterbaan,  G. Paran,  Alexander C. Paul,  Suranjan K. Paul,  
 F. Pavosevic,  Zheng Pei,  S. Prager,  E. I. Proynov,  E. Ramos,  B. Rana,  
 A. E. Rask,  A. Rettig,  R. M. Richard,  F. Rob,  E. Rossomme,  T. Scheele,  
 M. Scheurer,  M. Schneider,  N. Sergueev,  S. M. Sharada,  W. Skomorowski,  
 D. W. Small,  C. J. Stein,  Yu-Chuan Su,  E. J. Sundstrom,  Zhen Tao,  
 J. Thirman,  T. Tsuchimochi,  N. M. Tubman,  S. P. Veccham,  O. Vydrov,  
 J. Wenzel,  J. Witte,  A. Yamada,  Kun Yao,  S. Yeganeh,  S. R. Yost,  
 A. Zech,  Igor Ying Zhang,  Xing Zhang,  Yu Zhang,  D. Zuev,  
 A. Aspuru-Guzik,  A. T. Bell,  N. A. Besley,  K. B. Bravaya,  B. R. Brooks,  
 D. Casanova,  Jeng-Da Chai,  S. Coriani,  C. J. Cramer,  
 A. E. DePrince, III,  R. A. DiStasio Jr.,  A. Dreuw,  B. D. Dunietz,  
 T. R. Furlani,  W. A. Goddard III,  S. Grimme,  S. Hammes-Schiffer,  
 T. Head-Gordon,  W. J. Hehre,  Chao-Ping Hsu,  T.-C. Jagau,  Yousung Jung,  
 A. Klamt,  Jing Kong,  D. S. Lambrecht,  WanZhen Liang,  N. J. Mayhall,  
 C. W. McCurdy,  J. B. Neaton,  C. Ochsenfeld,  J. A. Parkhill,  R. Peverati,  
 V. A. Rassolov,  Yihan Shao,  L. V. Slipchenko,  T. Stauch,  R. P. Steele,  
 J. E. Subotnik,  A. J. W. Thom,  A. Tkatchenko,  D. G. Truhlar,  
 T. Van Voorhis,  T. A. Wesolowski,  K. B. Whaley,  H. L. Woodcock III,  
 P. M. Zimmerman,  S. Faraji,  P. M. W. Gill,  M. Head-Gordon,  
 J. M. Herbert,  A. I. Krylov

 Contributors to earlier versions of Q-Chem not listed above: 
 R. D. Adamson,  B. Austin,  R. Baer,  J. Baker,  G. J. O. Beran,  
 K. Brandhorst,  S. T. Brown,  E. F. C. Byrd,  A. K. Chakraborty,  
 G. K. L. Chan,  Chun-Min Chang,  Yunqing Chen,  C.-L. Cheng,  
 Siu Hung Chien,  D. M. Chipman,  D. L. Crittenden,  H. Dachsel,  
 R. J. Doerksen,  A. D. Dutoi,  R. G. Edgar,  J. Fosso-Tande,  
 L. Fusti-Molnar,  D. Ghosh,  A. Ghysels,  A. Golubeva-Zadorozhnaya,  
 J. Gonthier,  M. S. Gordon,  S. R. Gwaltney,  G. Hawkins,  J. E. Herr,  
 A. Heyden,  S. Hirata,  E. G. Hohenstein,  G. Kedziora,  F. J. Keil,  
 C. Kelley,  Jihan Kim,  R. A. King,  R. Z. Khaliullin,  P. P. Korambath,  
 W. Kurlancheek,  A. Laurent,  A. M. Lee,  M. S. Lee,  S. V. Levchenko,  
 Ching Yeh Lin,  D. Liotard,  E. Livshits,  R. C. Lochan,  I. Lotan,  
 L. A. Martinez-Martinez,  P. E. Maslen,  N. Nair,  D. P. O'Neill,  
 D. Neuhauser,  E. Neuscamman,  C. M. Oana,  R. Olivares-Amaya,  R. Olson,  
 T. M. Perrine,  B. Peters,  P. A. Pieniazek,  A. Prociuk,  Y. M. Rhee,  
 J. Ritchie,  M. A. Rohrdanz,  E. Rosta,  N. J. Russ,  H. F. Schaefer III,  
 M. W. Schmidt,  N. E. Schultz,  S. Sharma,  N. Shenvi,  C. D. Sherrill,  
 A. C. Simmonett,  A. Sodt,  T. Stein,  D. Stuck,  K. S. Thanthiriwatte,  
 V. Vanovschi,  L. Vogt,  Tao Wang,  A. Warshel,  M. A. Watson,  
 C. F. Williams,  Q. Wu,  X. Xu,  Jun Yang,  W. Zhang,  Yan Zhao

 Please cite Q-Chem as follows:
 Y. Shao et al., Mol. Phys. 113, 184-215 (2015)
 DOI: 10.1080/00268976.2014.952696

 Q-Chem 5.4.0 for Intel X86 EM64T Linux

 Parts of Q-Chem use Armadillo 9.800.1 (Horizon Scraper).
 http://arma.sourceforge.net/

 Q-Chem begins on Sun Jul 10 08:57:35 2022  

 Host: 
0

     Scratch files written to ./qchem898590//
 May1621 |scratch|qcdevops|jenkins|workspace|build_RNUM    
 Processing $rem in /cm/shared/apps/spack/cpu/opt/spack/linux-centos8-zen2/gcc-10.2.0/qchem-5.4-akfmr7b3t57bfs6qan3padb2wnb2i7cl/config/preferences:
 Processing $rem in /home/theleonzhang/.qchemrc:
 Symmetry turned off for PCM/SM12/SMD calculation
 Core orbitals will be frozen

 Checking the input file for inconsistencies... 	...done.

--------------------------------------------------------------
User input:
--------------------------------------------------------------
$molecule
0 1
C	-0.433841	-0.417594	0.010669
C	0.121259	0.243906	1.110069
C	1.010859	1.304106	0.787369
H	-0.115741	-0.038594	2.146769
C	1.152759	1.473106	-0.601831
S	0.171959	0.304306	-1.476131
C	1.710059	2.137306	1.825269
H	1.436459	1.811306	2.847369
H	1.447059	3.212106	1.736869
H	2.814259	2.064906	1.736869
C	-0.433841	-1.858294	0.010669
H	-0.803341	-1.858494	1.025469
H	0.335959	-2.562094	0.290869
H	-1.323841	-2.377194	-0.313231
H	1.762859	2.200206	-1.150931
$end

$rem
JOBTYPE		SP
EXCHANGE	HF
CORRELATION	pRIMP2
BASIS		cc-pvtz
METHOD		rimp2
AUX_BASIS	rimp2-cc-pvtz
SOLVENT_METHOD	PCM
PURECART	11111
SYMMETRY	false
MEM_TOTAL	110000
SCF_CONVERGENCE = 6
THRESH=10
$end



$solvent
dielectric 4.90
$end
--------------------------------------------------------------
 ----------------------------------------------------------------
             Standard Nuclear Orientation (Angstroms)
    I     Atom           X                Y                Z
 ----------------------------------------------------------------
    1      C      -0.4338410000    -0.4175940000     0.0106690000
    2      C       0.1212590000     0.2439060000     1.1100690000
    3      C       1.0108590000     1.3041060000     0.7873690000
    4      H      -0.1157410000    -0.0385940000     2.1467690000
    5      C       1.1527590000     1.4731060000    -0.6018310000
    6      S       0.1719590000     0.3043060000    -1.4761310000
    7      C       1.7100590000     2.1373060000     1.8252690000
    8      H       1.4364590000     1.8113060000     2.8473690000
    9      H       1.4470590000     3.2121060000     1.7368690000
   10      H       2.8142590000     2.0649060000     1.7368690000
   11      C      -0.4338410000    -1.8582940000     0.0106690000
   12      H      -0.8033410000    -1.8584940000     1.0254690000
   13      H       0.3359590000    -2.5620940000     0.2908690000
   14      H      -1.3238410000    -2.3771940000    -0.3132310000
   15      H       1.7628590000     2.2002060000    -1.1509310000
 ----------------------------------------------------------------
 Nuclear Repulsion Energy =         346.85441621 hartrees
 There are       30 alpha and       30 beta electrons

 Q-Chem warning in module forms1/BasisType.C, line 2236:

 You are not using the predefined 5D/6D in this basis set.

 Requested basis set is cc-pVTZ
 There are 120 shells and 326 basis functions

 Total QAlloc Memory Limit 110000 MB
 Mega-Array Size       188 MB
 MEM_STATIC part       192 MB
 Discretize the solute cavity surface with Lebedev spheres
	Using 110 Lebedev grid points for each H atom
	Using 194 Lebedev grid points for other atoms
	Atomic van der Waals radii will be scaled by 1.20
 Remove points where switching function is < 1.0e-08
 Keep 1053 surface tesserae and discard 1185 interior tesserae
 Molecular Surface Area = 157.262 Angst**2

                       Distance Matrix (Angstroms)
             C (  1)   C (  2)   C (  3)   H (  4)   C (  5)   S (  6)
   C (  2)  1.397998
   C (  3)  2.377955  1.421108
   H (  4)  2.192659  1.100328  2.218116
   C (  5)  2.543069  2.346386  1.406618  3.383656
   S (  6)  1.760315  2.587402  2.612812  3.650446  1.758540
   C (  7)  3.796919  2.573084  1.503442  2.858575  2.577316  4.077362
   H (  8)  4.063605  2.684158  2.163790  2.514417  3.477333  4.750017
   H (  9)  4.437598  3.310715  2.175382  3.630071  2.929207  4.517140
   H ( 10)  4.437649  3.310766  2.175458  3.630101  2.929220  4.517171
   C ( 11)  1.440700  2.436403  3.562470  2.824078  3.740412  2.693401
   H ( 12)  1.800706  2.298288  3.653772  2.245472  4.192134  3.447741
   H ( 13)  2.295645  2.931010  3.955945  3.164878  4.212709  3.371266
   H ( 14)  2.176475  3.314251  4.496011  3.602798  4.587118  3.283321
   H ( 15)  3.609388  3.410877  2.263958  4.406380  1.096543  2.496228
             C (  7)   H (  8)   H (  9)   H ( 10)   C ( 11)   H ( 12)
   H (  8)  1.107168
   H (  9)  1.110035  1.787614
   H ( 10)  1.110096  1.787696  1.784742
   C ( 11)  4.884045  5.001085  5.676840  5.377864
   H ( 12)  4.787826  4.669417  5.592975  5.383882  1.079977
   H ( 13)  5.130974  5.183958  6.055315  5.444448  1.080018  1.527316
   H ( 14)  5.844522  5.928927  6.566664  6.407732  1.079939  1.527117
   H ( 15)  2.977333  4.030407  3.076209  3.076221  4.758805  5.272110
             H ( 13)   H ( 14)
   H ( 14)  1.775968
   H ( 15)  5.176324  5.584089
 
 Requested basis set is rimp2-cc-pVTZ
 There are 250 shells and 848 basis functions
 A cutoff of  1.0D-10 yielded   6254 shell pairs
 There are     45962 function pairs (     59129 Cartesian)
 Smallest overlap matrix eigenvalue = 1.26E-04

 Scale SEOQF with 1.000000e-01/1.000000e-01/1.000000e-01

 Standard Electronic Orientation quadrupole field applied
 Nucleus-field energy     =     0.0000000003 hartrees
 Guess from superposition of atomic densities
 Warning:  Energy on first SCF cycle will be non-variational
 SAD guess density has 60.000000 electrons

 -----------------------------------------------------------------------
  General SCF calculation program by
  Eric Jon Sundstrom, Paul Horn, Yuezhi Mao, Dmitri Zuev, Alec White,
  David Stuck, Shaama M.S., Shane Yost, Joonho Lee, David Small,
  Daniel Levine, Susi Lehtola, Hugh Burton, Evgeny Epifanovsky,
  Bang C. Huynh
 -----------------------------------------------------------------------
 Hartree-Fock
 A restricted SCF calculation will be
 performed using DIIS
 SCF converges when DIIS error is below 1.0e-06
 ---------------------------------------
  Cycle       Energy         DIIS error
 ---------------------------------------
    1    -632.1418077393      2.93e-02  
    2    -629.3139735261      1.89e-03  
    3    -629.3833046629      6.13e-04  
    4    -629.3902508839      3.02e-04  
    5    -629.3918985669      6.13e-05  
    6    -629.3920355728      2.55e-05  
    7    -629.3920728325      1.19e-05  
    8    -629.3920847239      4.71e-06  
    9    -629.3920864551      1.88e-06  
   10    -629.3920866316      6.58e-07  Convergence criterion met
 ---------------------------------------
 SCF time:   CPU 144.58s  wall 146.00s 

************** Final PCM Free Energy Summary **************
 G_electrostatic  =      -0.00538220 hartree =      -3.37738246 kcal/mol
 G_cavitation     =       0.00000000 hartree =       0.00000000 kcal/mol
 G_dispersion     =       0.00000000 hartree =       0.00000000 kcal/mol
 G_repulsion      =       0.00000000 hartree =       0.00000000 kcal/mol
 --------------------------------------------------
 Non-electrostatic Free Energy =       0.00000000 hartree =       0.00000000 kcal/mol
 Total                         =      -0.00538220 hartree =      -3.37738246 kcal/mol
 --------------------------------------------------
 SCF Energy (H0 + V/2)                       =    -629.39208663 
 Solute Internal Energy (H0)                 =    -629.38670443 
 Total Free Energy (H0 + V/2 + non-elec)     =    -629.39208663 hartree
                                             = -394949.49533378 kcal/mol
***********************************************************

 SCF   energy in the final basis set =     -629.3920866316
 Total energy in the final basis set =     -629.3920866316


 --------------------------------------------------------------
  Generalized many-body perturbation theory program
  by Joonho Lee, Fazle Rob, Xintian Feng, Evgeny Epifanovsky

 No regularization used 
 (reg. param. = 0.0000e+00)
  (P|Q)^-1/2 Time:  CPU 0.48 s  wall 0.48 s

 In RI-MP2 calculation: 
 # of frozen core orbitals: 11

 Components of the RIMP2 correlation energy:
        aaaa    correlation energy =        -0.1468265296 a.u.
        abab    correlation energy =        -0.8912772163 a.u.
        bbbb    correlation energy =        -0.1468265296 a.u.
        non-Brillouin singles      =        -0.0000000000 a.u.
        total same-spin energy     =        -0.2936530592 a.u.
        total opposite-spin energy =        -0.8912772163 a.u.

 Total  RIMP2   correlation energy =        -1.1849302754 a.u.
        RIMP2         total energy =      -630.5770169070 a.u.

 RI-MP2 Energy Time:  CPU 11.12 s  wall 11.16 s
 
 --------------------------------------------------------------
 
                    Orbital Energies (a.u.)
 --------------------------------------------------------------
 
 Alpha MOs
 -- Occupied --
-91.9727 -11.2692 -11.2614 -11.2483 -11.2434 -11.2283 -11.2113  -8.9733
 -6.6542  -6.6534  -6.6531  -1.1657  -1.0537  -0.9995  -0.9377  -0.8842
 -0.7445  -0.7280  -0.6464  -0.5862  -0.5816  -0.5685  -0.5559  -0.5421
 -0.5164  -0.4782  -0.4635  -0.4291  -0.3373  -0.3039
 -- Virtual --
  0.0802   0.1438   0.1548   0.1764   0.1787   0.1901   0.2079   0.2239
  0.2323   0.2398   0.2512   0.2668   0.2952   0.3101   0.3420   0.3571
  0.3778   0.3978   0.4132   0.4215   0.4386   0.4514   0.4629   0.4746
  0.4823   0.4937   0.5014   0.5320   0.5384   0.5672   0.5731   0.5768
  0.5922   0.6016   0.6101   0.6277   0.6302   0.6332   0.6432   0.6480
  0.6607   0.6638   0.6806   0.6898   0.7216   0.7474   0.7727   0.7863
  0.7955   0.8147   0.8367   0.8555   0.8688   0.8834   0.9046   0.9404
  0.9532   0.9762   1.0002   1.0202   1.0288   1.0372   1.0574   1.0746
  1.0852   1.0909   1.1207   1.1488   1.1632   1.1805   1.1867   1.2034
  1.2223   1.2358   1.2566   1.2677   1.2877   1.2992   1.3060   1.3187
  1.3478   1.3728   1.3858   1.4041   1.4207   1.4353   1.4453   1.4799
  1.4955   1.5072   1.5166   1.5325   1.5421   1.5536   1.5688   1.5886
  1.6198   1.6415   1.6577   1.6663   1.6960   1.7013   1.7148   1.7363
  1.7525   1.7862   1.7911   1.8298   1.9064   1.9124   1.9386   1.9645
  1.9794   2.0406   2.0652   2.1147   2.1559   2.1826   2.2034   2.2075
  2.2569   2.2729   2.3418   2.4086   2.4557   2.4788   2.5346   2.5559
  2.5740   2.5905   2.6443   2.6514   2.6637   2.6768   2.7193   2.7289
  2.7477   2.7633   2.7826   2.8018   2.8270   2.8460   2.8564   2.9014
  2.9109   2.9258   2.9545   2.9705   3.0084   3.0282   3.0338   3.0500
  3.0739   3.1108   3.1239   3.1458   3.1577   3.1676   3.1739   3.2006
  3.2138   3.2355   3.2532   3.2598   3.2887   3.3029   3.3178   3.3321
  3.3391   3.3505   3.3702   3.3861   3.4040   3.4084   3.4252   3.4340
  3.4481   3.4635   3.4808   3.5097   3.5145   3.5251   3.5379   3.5537
  3.5752   3.5996   3.6065   3.6275   3.6393   3.6491   3.6674   3.6833
  3.7041   3.7118   3.7351   3.7499   3.7761   3.7844   3.7945   3.8049
  3.8147   3.8486   3.8579   3.8905   3.8951   3.9396   3.9472   3.9602
  3.9607   3.9828   4.0059   4.0416   4.0490   4.0754   4.0994   4.1170
  4.1328   4.1482   4.1666   4.1868   4.2096   4.2187   4.2281   4.2705
  4.2762   4.2957   4.3189   4.3494   4.3534   4.3635   4.3992   4.4034
  4.4245   4.4465   4.4600   4.4663   4.5118   4.5257   4.5667   4.5712
  4.6009   4.6156   4.6553   4.6837   4.7125   4.7372   4.7825   4.8050
  4.8147   4.8399   4.8725   4.8734   4.9064   4.9093   5.0429   5.0807
  5.1134   5.1280   5.1768   5.2031   5.2284   5.2583   5.2905   5.3190
  5.3597   5.4014   5.4062   5.4457   5.4609   5.5093   5.5461   5.5570
  5.6129   5.6217   5.6342   5.6836   5.7062   5.8129   5.8280   5.8667
  5.9449   5.9797   6.0355   6.1131   6.2259   6.2280   6.2671   6.3406
  6.4328   6.5137   9.2637  11.6374  12.8405  13.6948  14.1899  14.3331
 --------------------------------------------------------------
 
          Ground-State Mulliken Net Atomic Charges

     Atom                 Charge (a.u.)
  ----------------------------------------
      1 C                    -0.026162
      2 C                    -0.215407
      3 C                     0.019908
      4 H                     0.178912
      5 C                    -0.222665
      6 S                    -0.000266
      7 C                    -0.268981
      8 H                     0.101423
      9 H                     0.106868
     10 H                     0.106206
     11 C                    -0.355933
     12 H                     0.110239
     13 H                     0.150922
     14 H                     0.120166
     15 H                     0.194770
  ----------------------------------------
  Sum of atomic charges =     0.000000

 -----------------------------------------------------------------
                    Cartesian Multipole Moments
 -----------------------------------------------------------------
    Charge (ESU x 10^10)
                -0.0000
    Dipole Moment (Debye)
         X       1.1642      Y       0.2536      Z       2.2080
       Tot       2.5090
    Quadrupole Moments (Debye-Ang)
        XX     -50.2475     XY       4.7964     YY     -46.4564
        XZ      -0.0464     YZ      -1.0657     ZZ     -48.6009
    Octopole Moments (Debye-Ang^2)
       XXX     -63.7648    XXY     -16.0942    XYY     -14.6693
       YYY     -60.0586    XXZ      -3.8253    XYZ      -2.1551
       YYZ      -1.5495    XZZ     -19.3479    YZZ     -16.6291
       ZZZ       1.6707
    Hexadecapole Moments (Debye-Ang^3)
      XXXX    -311.2373   XXXY    -153.7889   XXYY    -140.3413
      XYYY    -150.8710   YYYY    -587.9370   XXXZ     -61.0929
      XXYZ     -26.4795   XYYZ     -23.7753   YYYZ     -79.8973
      XXZZ    -133.3271   XYZZ     -45.7745   YYZZ    -180.7158
      XZZZ     -64.9374   YZZZ     -72.7846   ZZZZ    -481.7185
 -----------------------------------------------------------------
 Total job time:  159.14s(wall), 156.11s(cpu) 
 Sun Jul 10 09:00:14 2022

        *************************************************************
        *                                                           *
        *  Thank you very much for using Q-Chem.  Have a nice day.  *
        *                                                           *
        *************************************************************


remove work dirs ./qchem898590.0 -- ./qchem898590.-1
rm -rf ./qchem898590
