You are running Q-Chem version: 5.4.0

#
# job setting
#
local host:  exp-1-06
current dir: /expanse/lustre/scratch/theleonzhang/temp_project/Hydrogenated_Impropers_Test
input file:  Methylthiophene_Phi_0_Theta_240_Methylthiophene_Hydrogenated_Improper_Alternate.qcin
output file: 
nprocs     : 0
nthreads   : 1
#
# qchem installation setting
#
QC:          /cm/shared/apps/spack/cpu/opt/spack/linux-centos8-zen2/gcc-10.2.0/qchem-5.4-akfmr7b3t57bfs6qan3padb2wnb2i7cl
QCAUX:       /cm/shared/apps/spack/cpu/opt/spack/linux-centos8-zen2/gcc-10.2.0/qchem-5.4-akfmr7b3t57bfs6qan3padb2wnb2i7cl/qcaux
QCPROG:      /cm/shared/apps/spack/cpu/opt/spack/linux-centos8-zen2/gcc-10.2.0/qchem-5.4-akfmr7b3t57bfs6qan3padb2wnb2i7cl/exe/qcprog.exe_s
QCPROG_S:    /cm/shared/apps/spack/cpu/opt/spack/linux-centos8-zen2/gcc-10.2.0/qchem-5.4-akfmr7b3t57bfs6qan3padb2wnb2i7cl/exe/qcprog.exe_s
PARALLEL:    -DSERIAL
QCMPI:       mpich
#
# qchem directory setting
#
qcrun:       qchem1888836
QCSCRATCH:   .
QCLOCALSCR:  
QCTMPDIR:    .
QCFILEPREF:  ./qchem1888836
QCSAVEDIR:   
workdirs:    ./qchem1888836
workdir0:    ./qchem1888836
partmpdirs =  
#
# parallel setting
#
QCRSH:           ssh
QCMPI:           mpich
QCMPIRUN:        /cm/shared/apps/spack/cpu/opt/spack/linux-centos8-zen2/gcc-10.2.0/qchem-5.4-akfmr7b3t57bfs6qan3padb2wnb2i7cl/bin/mpi/mpirun_qchem
QCMACHINEFILE:   ./qchem1888836/hostfile

#
# env setting
#
exported envs:   QC QCAUX QCSCRATCH QCRUNNAME QCFILEPREF QCPROG QCPROG_S GUIFILE

Running Job 1 of 1 Methylthiophene_Phi_0_Theta_240_Methylthiophene_Hydrogenated_Improper_Alternate.qcin
qchem Methylthiophene_Phi_0_Theta_240_Methylthiophene_Hydrogenated_Improper_Alternate.qcin_1888836.0 ./qchem1888836/ 0
/cm/shared/apps/spack/cpu/opt/spack/linux-centos8-zen2/gcc-10.2.0/qchem-5.4-akfmr7b3t57bfs6qan3padb2wnb2i7cl/exe/qcprog.exe_s Methylthiophene_Phi_0_Theta_240_Methylthiophene_Hydrogenated_Improper_Alternate.qcin_1888836.0 ./qchem1888836/
                  Welcome to Q-Chem
     A Quantum Leap Into The Future Of Chemistry


 Q-Chem 5.4, Q-Chem, Inc., Pleasanton, CA (2021)

 License issued to: University of California, San Diego (site)

 E. Epifanovsky,  A. T. B. Gilbert,  Xintian Feng,  Joonho Lee,  Yuezhi Mao,  
 N. Mardirossian,  P. Pokhilko,  A. White,  M. Wormit,  M. P. Coons,  
 A. L. Dempwolff,  Zhengting Gan,  D. Hait,  P. R. Horn,  L. D. Jacobson,  
 I. Kaliman,  J. Kussmann,  A. W. Lange,  Ka Un Lao,  D. S. Levine,  Jie Liu,  
 S. C. McKenzie,  A. F. Morrison,  K. Nanda,  F. Plasser,  D. R. Rehn,  
 M. L. Vidal,  Zhi-Qiang You,  Ying Zhu,  B. Alam,  B. Albrecht,  
 A. Aldossary,  E. Alguire,  J. H. Andersen,  D. Barton,  K. Begam,  A. Behn,  
 Y. A. Bernard,  E. J. Berquist,  H. Burton,  A. Carreras,  K. Carter-Fenk,  
 R. Chakraborty,  A. D. Chien,  K. D. Closser,  V. Cofer-Shabica,  
 S. Dasgupta,  Jia Deng,  M. de Wergifosse,  M. Diedenhofen,  Hainam Do,  
 S. Ehlert,  Po-Tung Fang,  S. Fatehi,  Qingguo Feng,  J. Gayvert,  
 Qinghui Ge,  G. Gidofalvi,  M. Goldey,  J. Gomes,  C. Gonzalez-Espinoza,  
 S. Gulania,  A. Gunina,  M. W. D. Hanson-Heine,  P. H. P. Harbach,  
 A. W. Hauser,  M. F. Herbst,  M. Hernandez Vera,  M. Hodecker,  
 Z. C. Holden,  S. Houck,  Xunkun Huang,  Kerwin Hui,  B. C. Huynh,  
 M. Ivanov,  Hyunjun Ji,  Hanjie Jiang,  B. Kaduk,  S. Kaehler,  
 K. Khistyaev,  Jaehoon Kim,  P. Klunzinger,  Z. Koczor-Benda,  
 Joong Hoon Koh,  D. Kosenkov,  L. Koulias,  T. Kowalczyk,  C. M. Krauter,  
 K. Kue,  A. Kunitsa,  T. Kus,  A. Landau,  K. V. Lawler,  D. Lefrancois,  
 S. Lehtola,  Rain Li,  Yi-Pei Li,  Jiashu Liang,  M. Liebenthal,  
 Hung-Hsuan Lin,  You-Sheng Lin,  Fenglai Liu,  Kuan-Yu Liu,  
 M. Loipersberger,  A. Luenser,  A. Manjanath,  P. Manohar,  E. Mansoor,  
 S. F. Manzer,  Shan-Ping Mao,  A. V. Marenich,  T. Markovich,  S. Mason,  
 S. A. Maurer,  P. F. McLaughlin,  M. F. S. J. Menger,  J.-M. Mewes,  
 S. A. Mewes,  P. Morgante,  J. W. Mullinax,  T. S. Nguyen-Beck,  
 K. J. Oosterbaan,  G. Paran,  Alexander C. Paul,  Suranjan K. Paul,  
 F. Pavosevic,  Zheng Pei,  S. Prager,  E. I. Proynov,  E. Ramos,  B. Rana,  
 A. E. Rask,  A. Rettig,  R. M. Richard,  F. Rob,  E. Rossomme,  T. Scheele,  
 M. Scheurer,  M. Schneider,  N. Sergueev,  S. M. Sharada,  W. Skomorowski,  
 D. W. Small,  C. J. Stein,  Yu-Chuan Su,  E. J. Sundstrom,  Zhen Tao,  
 J. Thirman,  T. Tsuchimochi,  N. M. Tubman,  S. P. Veccham,  O. Vydrov,  
 J. Wenzel,  J. Witte,  A. Yamada,  Kun Yao,  S. Yeganeh,  S. R. Yost,  
 A. Zech,  Igor Ying Zhang,  Xing Zhang,  Yu Zhang,  D. Zuev,  
 A. Aspuru-Guzik,  A. T. Bell,  N. A. Besley,  K. B. Bravaya,  B. R. Brooks,  
 D. Casanova,  Jeng-Da Chai,  S. Coriani,  C. J. Cramer,  
 A. E. DePrince, III,  R. A. DiStasio Jr.,  A. Dreuw,  B. D. Dunietz,  
 T. R. Furlani,  W. A. Goddard III,  S. Grimme,  S. Hammes-Schiffer,  
 T. Head-Gordon,  W. J. Hehre,  Chao-Ping Hsu,  T.-C. Jagau,  Yousung Jung,  
 A. Klamt,  Jing Kong,  D. S. Lambrecht,  WanZhen Liang,  N. J. Mayhall,  
 C. W. McCurdy,  J. B. Neaton,  C. Ochsenfeld,  J. A. Parkhill,  R. Peverati,  
 V. A. Rassolov,  Yihan Shao,  L. V. Slipchenko,  T. Stauch,  R. P. Steele,  
 J. E. Subotnik,  A. J. W. Thom,  A. Tkatchenko,  D. G. Truhlar,  
 T. Van Voorhis,  T. A. Wesolowski,  K. B. Whaley,  H. L. Woodcock III,  
 P. M. Zimmerman,  S. Faraji,  P. M. W. Gill,  M. Head-Gordon,  
 J. M. Herbert,  A. I. Krylov

 Contributors to earlier versions of Q-Chem not listed above: 
 R. D. Adamson,  B. Austin,  R. Baer,  J. Baker,  G. J. O. Beran,  
 K. Brandhorst,  S. T. Brown,  E. F. C. Byrd,  A. K. Chakraborty,  
 G. K. L. Chan,  Chun-Min Chang,  Yunqing Chen,  C.-L. Cheng,  
 Siu Hung Chien,  D. M. Chipman,  D. L. Crittenden,  H. Dachsel,  
 R. J. Doerksen,  A. D. Dutoi,  R. G. Edgar,  J. Fosso-Tande,  
 L. Fusti-Molnar,  D. Ghosh,  A. Ghysels,  A. Golubeva-Zadorozhnaya,  
 J. Gonthier,  M. S. Gordon,  S. R. Gwaltney,  G. Hawkins,  J. E. Herr,  
 A. Heyden,  S. Hirata,  E. G. Hohenstein,  G. Kedziora,  F. J. Keil,  
 C. Kelley,  Jihan Kim,  R. A. King,  R. Z. Khaliullin,  P. P. Korambath,  
 W. Kurlancheek,  A. Laurent,  A. M. Lee,  M. S. Lee,  S. V. Levchenko,  
 Ching Yeh Lin,  D. Liotard,  E. Livshits,  R. C. Lochan,  I. Lotan,  
 L. A. Martinez-Martinez,  P. E. Maslen,  N. Nair,  D. P. O'Neill,  
 D. Neuhauser,  E. Neuscamman,  C. M. Oana,  R. Olivares-Amaya,  R. Olson,  
 T. M. Perrine,  B. Peters,  P. A. Pieniazek,  A. Prociuk,  Y. M. Rhee,  
 J. Ritchie,  M. A. Rohrdanz,  E. Rosta,  N. J. Russ,  H. F. Schaefer III,  
 M. W. Schmidt,  N. E. Schultz,  S. Sharma,  N. Shenvi,  C. D. Sherrill,  
 A. C. Simmonett,  A. Sodt,  T. Stein,  D. Stuck,  K. S. Thanthiriwatte,  
 V. Vanovschi,  L. Vogt,  Tao Wang,  A. Warshel,  M. A. Watson,  
 C. F. Williams,  Q. Wu,  X. Xu,  Jun Yang,  W. Zhang,  Yan Zhao

 Please cite Q-Chem as follows:
 Y. Shao et al., Mol. Phys. 113, 184-215 (2015)
 DOI: 10.1080/00268976.2014.952696

 Q-Chem 5.4.0 for Intel X86 EM64T Linux

 Parts of Q-Chem use Armadillo 9.800.1 (Horizon Scraper).
 http://arma.sourceforge.net/

 Q-Chem begins on Sun Jul 10 10:15:22 2022  

 Host: 
0

     Scratch files written to ./qchem1888836//
 May1621 |scratch|qcdevops|jenkins|workspace|build_RNUM    
 Processing $rem in /cm/shared/apps/spack/cpu/opt/spack/linux-centos8-zen2/gcc-10.2.0/qchem-5.4-akfmr7b3t57bfs6qan3padb2wnb2i7cl/config/preferences:
 Processing $rem in /home/theleonzhang/.qchemrc:
 Symmetry turned off for PCM/SM12/SMD calculation
 Core orbitals will be frozen

 Checking the input file for inconsistencies... 	...done.

--------------------------------------------------------------
User input:
--------------------------------------------------------------
$molecule
0 1
C	0.001910	-0.576309	0.019522
C	0.001910	0.287291	1.118922
C	0.002010	1.671191	0.796222
H	0.001910	-0.081509	2.155622
C	0.002010	1.891891	-0.592978
S	0.001910	0.366091	-1.467278
C	0.002010	2.758991	1.834122
H	0.002010	2.333291	2.856222
H	-0.890390	3.413291	1.745722
H	0.894410	3.413191	1.745722
C	0.001910	-2.017009	0.019522
H	-0.537990	-2.017209	-0.915878
H	-0.707590	-2.720809	0.429022
H	0.822110	-2.535909	-0.454078
H	0.002010	2.841091	-1.142078
$end

$rem
JOBTYPE		SP
EXCHANGE	HF
CORRELATION	pRIMP2
BASIS		cc-pvtz
METHOD		rimp2
AUX_BASIS	rimp2-cc-pvtz
SOLVENT_METHOD	PCM
PURECART	11111
SYMMETRY	false
MEM_TOTAL	110000
SCF_CONVERGENCE = 6
THRESH=10
$end



$solvent
dielectric 4.90
$end
--------------------------------------------------------------
 ----------------------------------------------------------------
             Standard Nuclear Orientation (Angstroms)
    I     Atom           X                Y                Z
 ----------------------------------------------------------------
    1      C       0.0019100000    -0.5763090000     0.0195220000
    2      C       0.0019100000     0.2872910000     1.1189220000
    3      C       0.0020100000     1.6711910000     0.7962220000
    4      H       0.0019100000    -0.0815090000     2.1556220000
    5      C       0.0020100000     1.8918910000    -0.5929780000
    6      S       0.0019100000     0.3660910000    -1.4672780000
    7      C       0.0020100000     2.7589910000     1.8341220000
    8      H       0.0020100000     2.3332910000     2.8562220000
    9      H      -0.8903900000     3.4132910000     1.7457220000
   10      H       0.8944100000     3.4131910000     1.7457220000
   11      C       0.0019100000    -2.0170090000     0.0195220000
   12      H      -0.5379900000    -2.0172090000    -0.9158780000
   13      H      -0.7075900000    -2.7208090000     0.4290220000
   14      H       0.8221100000    -2.5359090000    -0.4540780000
   15      H       0.0020100000     2.8410910000    -1.1420780000
 ----------------------------------------------------------------
 Nuclear Repulsion Energy =         344.65748772 hartrees
 There are       30 alpha and       30 beta electrons

 Q-Chem warning in module forms1/BasisType.C, line 2236:

 You are not using the predefined 5D/6D in this basis set.

 Requested basis set is cc-pVTZ
 There are 120 shells and 326 basis functions

 Total QAlloc Memory Limit 110000 MB
 Mega-Array Size       188 MB
 MEM_STATIC part       192 MB
 Discretize the solute cavity surface with Lebedev spheres
	Using 110 Lebedev grid points for each H atom
	Using 194 Lebedev grid points for other atoms
	Atomic van der Waals radii will be scaled by 1.20
 Remove points where switching function is < 1.0e-08
 Keep 1062 surface tesserae and discard 1176 interior tesserae
 Molecular Surface Area = 159.025 Angst**2

                       Distance Matrix (Angstroms)
             C (  1)   C (  2)   C (  3)   H (  4)   C (  5)   S (  6)
   C (  2)  1.398029
   C (  3)  2.377923  1.421026
   H (  4)  2.192658  1.100346  2.218091
   C (  5)  2.543063  2.346347  1.406622  3.383653
   S (  6)  1.760310  2.587400  2.612799  3.650445  1.758541
   C (  7)  3.796972  2.573094  1.503511  2.858636  2.577339  4.077403
   H (  8)  4.063575  2.684088  2.163788  2.514379  3.477329  4.750003
   H (  9)  4.437665  3.310733  2.175509  3.630130  2.929258  4.517189
   H ( 10)  4.437616  3.310693  2.175429  3.630083  2.929206  4.517161
   C ( 11)  1.440700  2.553131  3.769096  2.882548  3.956596  2.808868
   H ( 12)  1.800738  3.121318  4.102095  3.670496  3.959410  2.505125
   H ( 13)  2.295640  3.166705  4.464082  3.232714  4.777554  3.691652
   H ( 14)  2.176478  3.334294  4.464919  3.675234  4.505249  3.181337
   H ( 15)  3.609423  3.410867  2.263995  4.406406  1.096582  2.496273
             C (  7)   H (  8)   H (  9)   H ( 10)   C ( 11)   H ( 12)
   H (  8)  1.107208
   H (  9)  1.110090  1.787733
   H ( 10)  1.110032  1.787672  1.784800
   C ( 11)  5.109105  5.193455  5.767506  5.767443
   H ( 12)  5.537706  5.783354  6.057939  6.214912  1.080030
   H ( 13)  5.701407  5.651439  6.276488  6.475034  1.080007  1.527276
   H ( 14)  5.826181  5.944725  6.569989  6.343196  1.079945  1.527148
   H ( 15)  2.977332  4.030417  3.076228  3.076210  4.995043  4.893449
             H ( 13)   H ( 14)
   H ( 14)  1.775961
   H ( 15)  5.822939  5.482521
 
 Requested basis set is rimp2-cc-pVTZ
 There are 250 shells and 848 basis functions
 A cutoff of  1.0D-10 yielded   6161 shell pairs
 There are     45095 function pairs (     57990 Cartesian)
 Smallest overlap matrix eigenvalue = 9.60E-05

 Scale SEOQF with 1.000000e+00/1.000000e-01/1.000000e-01

 Standard Electronic Orientation quadrupole field applied
 Nucleus-field energy     =     0.0000000035 hartrees
 Guess from superposition of atomic densities
 Warning:  Energy on first SCF cycle will be non-variational
 SAD guess density has 60.000000 electrons

 -----------------------------------------------------------------------
  General SCF calculation program by
  Eric Jon Sundstrom, Paul Horn, Yuezhi Mao, Dmitri Zuev, Alec White,
  David Stuck, Shaama M.S., Shane Yost, Joonho Lee, David Small,
  Daniel Levine, Susi Lehtola, Hugh Burton, Evgeny Epifanovsky,
  Bang C. Huynh
 -----------------------------------------------------------------------
 Hartree-Fock
 A restricted SCF calculation will be
 performed using DIIS
 SCF converges when DIIS error is below 1.0e-06
 ---------------------------------------
  Cycle       Energy         DIIS error
 ---------------------------------------
    1    -632.1051501861      2.92e-02  
    2    -629.3410096881      1.94e-03  
    3    -629.4115719013      6.92e-04  
    4    -629.4192149901      3.48e-04  
    5    -629.4213755146      6.42e-05  
    6    -629.4215129073      2.65e-05  
    7    -629.4215476695      1.16e-05  
    8    -629.4215572503      5.07e-06  
    9    -629.4215586979      1.72e-06  
   10    -629.4215588772      5.88e-07  Convergence criterion met
 ---------------------------------------
 SCF time:   CPU 144.88s  wall 147.00s 

************** Final PCM Free Energy Summary **************
 G_electrostatic  =      -0.00522655 hartree =      -3.27970660 kcal/mol
 G_cavitation     =       0.00000000 hartree =       0.00000000 kcal/mol
 G_dispersion     =       0.00000000 hartree =       0.00000000 kcal/mol
 G_repulsion      =       0.00000000 hartree =       0.00000000 kcal/mol
 --------------------------------------------------
 Non-electrostatic Free Energy =       0.00000000 hartree =       0.00000000 kcal/mol
 Total                         =      -0.00522655 hartree =      -3.27970660 kcal/mol
 --------------------------------------------------
 SCF Energy (H0 + V/2)                       =    -629.42155888 
 Solute Internal Energy (H0)                 =    -629.41633233 
 Total Free Energy (H0 + V/2 + non-elec)     =    -629.42155888 hartree
                                             = -394967.98944701 kcal/mol
***********************************************************

 SCF   energy in the final basis set =     -629.4215588772
 Total energy in the final basis set =     -629.4215588772


 --------------------------------------------------------------
  Generalized many-body perturbation theory program
  by Joonho Lee, Fazle Rob, Xintian Feng, Evgeny Epifanovsky

 No regularization used 
 (reg. param. = 0.0000e+00)
  (P|Q)^-1/2 Time:  CPU 0.49 s  wall 0.49 s

 In RI-MP2 calculation: 
 # of frozen core orbitals: 11

 Components of the RIMP2 correlation energy:
        aaaa    correlation energy =        -0.1453707483 a.u.
        abab    correlation energy =        -0.8861698770 a.u.
        bbbb    correlation energy =        -0.1453707483 a.u.
        non-Brillouin singles      =        -0.0000000000 a.u.
        total same-spin energy     =        -0.2907414965 a.u.
        total opposite-spin energy =        -0.8861698770 a.u.

 Total  RIMP2   correlation energy =        -1.1769113736 a.u.
        RIMP2         total energy =      -630.5984702507 a.u.

 RI-MP2 Energy Time:  CPU 11.34 s  wall 11.41 s
 
 --------------------------------------------------------------
 
                    Orbital Energies (a.u.)
 --------------------------------------------------------------
 
 Alpha MOs
 -- Occupied --
-91.9799 -11.2776 -11.2559 -11.2469 -11.2276 -11.2267 -11.2172  -8.9797
 -6.6607  -6.6602  -6.6595  -1.1607  -1.0554  -0.9955  -0.9459  -0.8817
 -0.7471  -0.7183  -0.6486  -0.5908  -0.5753  -0.5653  -0.5538  -0.5473
 -0.5085  -0.4877  -0.4650  -0.4482  -0.3390  -0.2994
 -- Virtual --
  0.1059   0.1424   0.1497   0.1745   0.1888   0.1912   0.2008   0.2284
  0.2386   0.2416   0.2478   0.2669   0.2889   0.3224   0.3431   0.3485
  0.3798   0.3964   0.4043   0.4182   0.4395   0.4680   0.4702   0.4839
  0.4927   0.4992   0.5226   0.5288   0.5371   0.5618   0.5854   0.5958
  0.6005   0.6080   0.6105   0.6152   0.6303   0.6400   0.6427   0.6498
  0.6568   0.6687   0.6895   0.7122   0.7364   0.7404   0.7705   0.7832
  0.8015   0.8237   0.8420   0.8543   0.8696   0.8979   0.9237   0.9376
  0.9402   0.9636   0.9702   1.0080   1.0362   1.0435   1.0648   1.0755
  1.0808   1.0827   1.1069   1.1469   1.1641   1.1793   1.1992   1.2121
  1.2260   1.2433   1.2529   1.2614   1.2682   1.2894   1.3065   1.3245
  1.3602   1.3862   1.3991   1.4113   1.4269   1.4403   1.4525   1.4783
  1.4961   1.5159   1.5340   1.5369   1.5506   1.5565   1.5750   1.5878
  1.6119   1.6280   1.6473   1.6782   1.6838   1.6958   1.7130   1.7433
  1.7589   1.7857   1.8208   1.8359   1.8890   1.9015   1.9175   1.9681
  2.0008   2.0447   2.0923   2.1329   2.1854   2.1987   2.2185   2.2512
  2.2604   2.2960   2.3578   2.4169   2.4577   2.5013   2.5186   2.5516
  2.5698   2.6074   2.6271   2.6528   2.6811   2.7039   2.7093   2.7369
  2.7463   2.7614   2.7623   2.7900   2.8024   2.8434   2.8496   2.8906
  2.9107   2.9286   2.9452   2.9791   3.0031   3.0219   3.0465   3.0618
  3.0789   3.1126   3.1143   3.1335   3.1508   3.1594   3.1701   3.2042
  3.2346   3.2403   3.2548   3.2774   3.2824   3.2987   3.3111   3.3245
  3.3429   3.3681   3.3734   3.3824   3.3965   3.4240   3.4280   3.4351
  3.4537   3.4661   3.4945   3.5055   3.5078   3.5197   3.5279   3.5773
  3.5861   3.5899   3.6121   3.6232   3.6278   3.6353   3.6616   3.6699
  3.6949   3.7105   3.7186   3.7452   3.7644   3.7892   3.7906   3.8039
  3.8043   3.8298   3.8668   3.8885   3.9125   3.9223   3.9362   3.9578
  3.9671   3.9812   4.0106   4.0259   4.0350   4.0519   4.0853   4.1047
  4.1204   4.1493   4.1537   4.1780   4.1912   4.2237   4.2412   4.2445
  4.2809   4.2905   4.3064   4.3323   4.3404   4.3490   4.3945   4.4027
  4.4173   4.4269   4.4489   4.4575   4.4670   4.4861   4.5466   4.5555
  4.5942   4.6145   4.6440   4.6628   4.7115   4.7297   4.7648   4.7891
  4.8006   4.8239   4.8566   4.8936   4.9292   4.9765   5.0694   5.1025
  5.1052   5.1670   5.1900   5.2000   5.2551   5.2705   5.2905   5.3206
  5.3668   5.4057   5.4182   5.4423   5.4845   5.4977   5.5550   5.5669
  5.5893   5.6178   5.6233   5.6972   5.7243   5.8300   5.8399   5.8703
  5.9093   6.0085   6.0372   6.1324   6.2272   6.2552   6.3147   6.3528
  6.4623   6.5177   9.1871  11.4337  12.9453  13.9002  14.1878  14.4951
 --------------------------------------------------------------
 
          Ground-State Mulliken Net Atomic Charges

     Atom                 Charge (a.u.)
  ----------------------------------------
      1 C                     0.055385
      2 C                    -0.272903
      3 C                     0.040474
      4 H                     0.180611
      5 C                    -0.260313
      6 S                    -0.003182
      7 C                    -0.273521
      8 H                     0.101720
      9 H                     0.106940
     10 H                     0.107122
     11 C                    -0.373764
     12 H                     0.117330
     13 H                     0.153470
     14 H                     0.125804
     15 H                     0.194825
  ----------------------------------------
  Sum of atomic charges =     0.000000

 -----------------------------------------------------------------
                    Cartesian Multipole Moments
 -----------------------------------------------------------------
    Charge (ESU x 10^10)
                -0.0000
    Dipole Moment (Debye)
         X      -0.3202      Y      -0.1415      Z       0.8926
       Tot       0.9588
    Quadrupole Moments (Debye-Ang)
        XX     -53.8704     XY       0.8493     YY     -42.0328
        XZ      -0.2708     YZ       1.3282     ZZ     -48.7936
    Octopole Moments (Debye-Ang^2)
       XXX       0.3666    XXY     -32.5185    XYY      -2.2017
       YYY     -79.4752    XXZ      -1.6994    XYZ       1.0669
       YYZ      -6.7123    XZZ       0.1304    YZZ     -23.8850
       ZZZ       2.0927
    Hexadecapole Moments (Debye-Ang^3)
      XXXX     -78.7490   XXXY      -1.4897   XXYY    -158.4109
      XYYY       5.0033   YYYY    -812.5150   XXXZ      -0.1396
      XXYZ     -31.2315   XYYZ      -3.2004   YYYZ    -104.1521
      XXZZ    -101.4438   XYZZ      -0.6077   YYZZ    -216.4026
      XZZZ       0.7463   YZZZ    -104.7926   ZZZZ    -482.5793
 -----------------------------------------------------------------
 Total job time:  161.38s(wall), 156.59s(cpu) 
 Sun Jul 10 10:18:04 2022

        *************************************************************
        *                                                           *
        *  Thank you very much for using Q-Chem.  Have a nice day.  *
        *                                                           *
        *************************************************************


remove work dirs ./qchem1888836.0 -- ./qchem1888836.-1
rm -rf ./qchem1888836
You are running Q-Chem version: 5.4.0

#
# job setting
#
local host:  exp-12-30
current dir: /expanse/lustre/scratch/theleonzhang/temp_project/Hydrogenated_Impropers_Test
input file:  Methylthiophene_Phi_0_Theta_240_Methylthiophene_Hydrogenated_Improper_Alternate.qcin
output file: 
nprocs     : 0
nthreads   : 1
#
# qchem installation setting
#
QC:          /cm/shared/apps/spack/cpu/opt/spack/linux-centos8-zen2/gcc-10.2.0/qchem-5.4-akfmr7b3t57bfs6qan3padb2wnb2i7cl
QCAUX:       /cm/shared/apps/spack/cpu/opt/spack/linux-centos8-zen2/gcc-10.2.0/qchem-5.4-akfmr7b3t57bfs6qan3padb2wnb2i7cl/qcaux
QCPROG:      /cm/shared/apps/spack/cpu/opt/spack/linux-centos8-zen2/gcc-10.2.0/qchem-5.4-akfmr7b3t57bfs6qan3padb2wnb2i7cl/exe/qcprog.exe_s
QCPROG_S:    /cm/shared/apps/spack/cpu/opt/spack/linux-centos8-zen2/gcc-10.2.0/qchem-5.4-akfmr7b3t57bfs6qan3padb2wnb2i7cl/exe/qcprog.exe_s
PARALLEL:    -DSERIAL
QCMPI:       mpich
#
# qchem directory setting
#
qcrun:       qchem878796
QCSCRATCH:   .
QCLOCALSCR:  
QCTMPDIR:    .
QCFILEPREF:  ./qchem878796
QCSAVEDIR:   
workdirs:    ./qchem878796
workdir0:    ./qchem878796
partmpdirs =  
#
# parallel setting
#
QCRSH:           ssh
QCMPI:           mpich
QCMPIRUN:        /cm/shared/apps/spack/cpu/opt/spack/linux-centos8-zen2/gcc-10.2.0/qchem-5.4-akfmr7b3t57bfs6qan3padb2wnb2i7cl/bin/mpi/mpirun_qchem
QCMACHINEFILE:   ./qchem878796/hostfile

#
# env setting
#
exported envs:   QC QCAUX QCSCRATCH QCRUNNAME QCFILEPREF QCPROG QCPROG_S GUIFILE

Running Job 1 of 1 Methylthiophene_Phi_0_Theta_240_Methylthiophene_Hydrogenated_Improper_Alternate.qcin
qchem Methylthiophene_Phi_0_Theta_240_Methylthiophene_Hydrogenated_Improper_Alternate.qcin_878796.0 ./qchem878796/ 0
/cm/shared/apps/spack/cpu/opt/spack/linux-centos8-zen2/gcc-10.2.0/qchem-5.4-akfmr7b3t57bfs6qan3padb2wnb2i7cl/exe/qcprog.exe_s Methylthiophene_Phi_0_Theta_240_Methylthiophene_Hydrogenated_Improper_Alternate.qcin_878796.0 ./qchem878796/
                  Welcome to Q-Chem
     A Quantum Leap Into The Future Of Chemistry


 Q-Chem 5.4, Q-Chem, Inc., Pleasanton, CA (2021)

 License issued to: University of California, San Diego (site)

 E. Epifanovsky,  A. T. B. Gilbert,  Xintian Feng,  Joonho Lee,  Yuezhi Mao,  
 N. Mardirossian,  P. Pokhilko,  A. White,  M. Wormit,  M. P. Coons,  
 A. L. Dempwolff,  Zhengting Gan,  D. Hait,  P. R. Horn,  L. D. Jacobson,  
 I. Kaliman,  J. Kussmann,  A. W. Lange,  Ka Un Lao,  D. S. Levine,  Jie Liu,  
 S. C. McKenzie,  A. F. Morrison,  K. Nanda,  F. Plasser,  D. R. Rehn,  
 M. L. Vidal,  Zhi-Qiang You,  Ying Zhu,  B. Alam,  B. Albrecht,  
 A. Aldossary,  E. Alguire,  J. H. Andersen,  D. Barton,  K. Begam,  A. Behn,  
 Y. A. Bernard,  E. J. Berquist,  H. Burton,  A. Carreras,  K. Carter-Fenk,  
 R. Chakraborty,  A. D. Chien,  K. D. Closser,  V. Cofer-Shabica,  
 S. Dasgupta,  Jia Deng,  M. de Wergifosse,  M. Diedenhofen,  Hainam Do,  
 S. Ehlert,  Po-Tung Fang,  S. Fatehi,  Qingguo Feng,  J. Gayvert,  
 Qinghui Ge,  G. Gidofalvi,  M. Goldey,  J. Gomes,  C. Gonzalez-Espinoza,  
 S. Gulania,  A. Gunina,  M. W. D. Hanson-Heine,  P. H. P. Harbach,  
 A. W. Hauser,  M. F. Herbst,  M. Hernandez Vera,  M. Hodecker,  
 Z. C. Holden,  S. Houck,  Xunkun Huang,  Kerwin Hui,  B. C. Huynh,  
 M. Ivanov,  Hyunjun Ji,  Hanjie Jiang,  B. Kaduk,  S. Kaehler,  
 K. Khistyaev,  Jaehoon Kim,  P. Klunzinger,  Z. Koczor-Benda,  
 Joong Hoon Koh,  D. Kosenkov,  L. Koulias,  T. Kowalczyk,  C. M. Krauter,  
 K. Kue,  A. Kunitsa,  T. Kus,  A. Landau,  K. V. Lawler,  D. Lefrancois,  
 S. Lehtola,  Rain Li,  Yi-Pei Li,  Jiashu Liang,  M. Liebenthal,  
 Hung-Hsuan Lin,  You-Sheng Lin,  Fenglai Liu,  Kuan-Yu Liu,  
 M. Loipersberger,  A. Luenser,  A. Manjanath,  P. Manohar,  E. Mansoor,  
 S. F. Manzer,  Shan-Ping Mao,  A. V. Marenich,  T. Markovich,  S. Mason,  
 S. A. Maurer,  P. F. McLaughlin,  M. F. S. J. Menger,  J.-M. Mewes,  
 S. A. Mewes,  P. Morgante,  J. W. Mullinax,  T. S. Nguyen-Beck,  
 K. J. Oosterbaan,  G. Paran,  Alexander C. Paul,  Suranjan K. Paul,  
 F. Pavosevic,  Zheng Pei,  S. Prager,  E. I. Proynov,  E. Ramos,  B. Rana,  
 A. E. Rask,  A. Rettig,  R. M. Richard,  F. Rob,  E. Rossomme,  T. Scheele,  
 M. Scheurer,  M. Schneider,  N. Sergueev,  S. M. Sharada,  W. Skomorowski,  
 D. W. Small,  C. J. Stein,  Yu-Chuan Su,  E. J. Sundstrom,  Zhen Tao,  
 J. Thirman,  T. Tsuchimochi,  N. M. Tubman,  S. P. Veccham,  O. Vydrov,  
 J. Wenzel,  J. Witte,  A. Yamada,  Kun Yao,  S. Yeganeh,  S. R. Yost,  
 A. Zech,  Igor Ying Zhang,  Xing Zhang,  Yu Zhang,  D. Zuev,  
 A. Aspuru-Guzik,  A. T. Bell,  N. A. Besley,  K. B. Bravaya,  B. R. Brooks,  
 D. Casanova,  Jeng-Da Chai,  S. Coriani,  C. J. Cramer,  
 A. E. DePrince, III,  R. A. DiStasio Jr.,  A. Dreuw,  B. D. Dunietz,  
 T. R. Furlani,  W. A. Goddard III,  S. Grimme,  S. Hammes-Schiffer,  
 T. Head-Gordon,  W. J. Hehre,  Chao-Ping Hsu,  T.-C. Jagau,  Yousung Jung,  
 A. Klamt,  Jing Kong,  D. S. Lambrecht,  WanZhen Liang,  N. J. Mayhall,  
 C. W. McCurdy,  J. B. Neaton,  C. Ochsenfeld,  J. A. Parkhill,  R. Peverati,  
 V. A. Rassolov,  Yihan Shao,  L. V. Slipchenko,  T. Stauch,  R. P. Steele,  
 J. E. Subotnik,  A. J. W. Thom,  A. Tkatchenko,  D. G. Truhlar,  
 T. Van Voorhis,  T. A. Wesolowski,  K. B. Whaley,  H. L. Woodcock III,  
 P. M. Zimmerman,  S. Faraji,  P. M. W. Gill,  M. Head-Gordon,  
 J. M. Herbert,  A. I. Krylov

 Contributors to earlier versions of Q-Chem not listed above: 
 R. D. Adamson,  B. Austin,  R. Baer,  J. Baker,  G. J. O. Beran,  
 K. Brandhorst,  S. T. Brown,  E. F. C. Byrd,  A. K. Chakraborty,  
 G. K. L. Chan,  Chun-Min Chang,  Yunqing Chen,  C.-L. Cheng,  
 Siu Hung Chien,  D. M. Chipman,  D. L. Crittenden,  H. Dachsel,  
 R. J. Doerksen,  A. D. Dutoi,  R. G. Edgar,  J. Fosso-Tande,  
 L. Fusti-Molnar,  D. Ghosh,  A. Ghysels,  A. Golubeva-Zadorozhnaya,  
 J. Gonthier,  M. S. Gordon,  S. R. Gwaltney,  G. Hawkins,  J. E. Herr,  
 A. Heyden,  S. Hirata,  E. G. Hohenstein,  G. Kedziora,  F. J. Keil,  
 C. Kelley,  Jihan Kim,  R. A. King,  R. Z. Khaliullin,  P. P. Korambath,  
 W. Kurlancheek,  A. Laurent,  A. M. Lee,  M. S. Lee,  S. V. Levchenko,  
 Ching Yeh Lin,  D. Liotard,  E. Livshits,  R. C. Lochan,  I. Lotan,  
 L. A. Martinez-Martinez,  P. E. Maslen,  N. Nair,  D. P. O'Neill,  
 D. Neuhauser,  E. Neuscamman,  C. M. Oana,  R. Olivares-Amaya,  R. Olson,  
 T. M. Perrine,  B. Peters,  P. A. Pieniazek,  A. Prociuk,  Y. M. Rhee,  
 J. Ritchie,  M. A. Rohrdanz,  E. Rosta,  N. J. Russ,  H. F. Schaefer III,  
 M. W. Schmidt,  N. E. Schultz,  S. Sharma,  N. Shenvi,  C. D. Sherrill,  
 A. C. Simmonett,  A. Sodt,  T. Stein,  D. Stuck,  K. S. Thanthiriwatte,  
 V. Vanovschi,  L. Vogt,  Tao Wang,  A. Warshel,  M. A. Watson,  
 C. F. Williams,  Q. Wu,  X. Xu,  Jun Yang,  W. Zhang,  Yan Zhao

 Please cite Q-Chem as follows:
 Y. Shao et al., Mol. Phys. 113, 184-215 (2015)
 DOI: 10.1080/00268976.2014.952696

 Q-Chem 5.4.0 for Intel X86 EM64T Linux

 Parts of Q-Chem use Armadillo 9.800.1 (Horizon Scraper).
 http://arma.sourceforge.net/

 Q-Chem begins on Sun Jul 10 10:44:07 2022  

 Host: 
0

     Scratch files written to ./qchem878796//
 May1621 |scratch|qcdevops|jenkins|workspace|build_RNUM    
 Processing $rem in /cm/shared/apps/spack/cpu/opt/spack/linux-centos8-zen2/gcc-10.2.0/qchem-5.4-akfmr7b3t57bfs6qan3padb2wnb2i7cl/config/preferences:
 Processing $rem in /home/theleonzhang/.qchemrc:
 Symmetry turned off for PCM/SM12/SMD calculation
 Core orbitals will be frozen

 Checking the input file for inconsistencies... 	...done.

--------------------------------------------------------------
User input:
--------------------------------------------------------------
$molecule
0 1
C	0.001910	-0.576309	0.019522
C	0.001910	0.287291	1.118922
C	0.002010	1.671191	0.796222
H	0.001910	-0.081509	2.155622
C	0.002010	1.891891	-0.592978
S	0.001910	0.366091	-1.467278
C	0.002010	2.758991	1.834122
H	0.002010	2.333291	2.856222
H	-0.890390	3.413291	1.745722
H	0.894410	3.413191	1.745722
C	0.001910	-2.017009	0.019522
H	-0.537990	-2.017209	-0.915878
H	-0.707590	-2.720809	0.429022
H	0.822110	-2.535909	-0.454078
H	0.002010	2.841091	-1.142078
$end

$rem
JOBTYPE		SP
EXCHANGE	HF
CORRELATION	pRIMP2
BASIS		cc-pvtz
METHOD		rimp2
AUX_BASIS	rimp2-cc-pvtz
SOLVENT_METHOD	PCM
PURECART	11111
SYMMETRY	false
MEM_TOTAL	110000
SCF_CONVERGENCE = 6
THRESH=10
$end



$solvent
dielectric 4.90
$end
--------------------------------------------------------------
 ----------------------------------------------------------------
             Standard Nuclear Orientation (Angstroms)
    I     Atom           X                Y                Z
 ----------------------------------------------------------------
    1      C       0.0019100000    -0.5763090000     0.0195220000
    2      C       0.0019100000     0.2872910000     1.1189220000
    3      C       0.0020100000     1.6711910000     0.7962220000
    4      H       0.0019100000    -0.0815090000     2.1556220000
    5      C       0.0020100000     1.8918910000    -0.5929780000
    6      S       0.0019100000     0.3660910000    -1.4672780000
    7      C       0.0020100000     2.7589910000     1.8341220000
    8      H       0.0020100000     2.3332910000     2.8562220000
    9      H      -0.8903900000     3.4132910000     1.7457220000
   10      H       0.8944100000     3.4131910000     1.7457220000
   11      C       0.0019100000    -2.0170090000     0.0195220000
   12      H      -0.5379900000    -2.0172090000    -0.9158780000
   13      H      -0.7075900000    -2.7208090000     0.4290220000
   14      H       0.8221100000    -2.5359090000    -0.4540780000
   15      H       0.0020100000     2.8410910000    -1.1420780000
 ----------------------------------------------------------------
 Nuclear Repulsion Energy =         344.65748772 hartrees
 There are       30 alpha and       30 beta electrons

 Q-Chem warning in module forms1/BasisType.C, line 2236:

 You are not using the predefined 5D/6D in this basis set.

 Requested basis set is cc-pVTZ
 There are 120 shells and 326 basis functions

 Total QAlloc Memory Limit 110000 MB
 Mega-Array Size       188 MB
 MEM_STATIC part       192 MB
 Discretize the solute cavity surface with Lebedev spheres
	Using 110 Lebedev grid points for each H atom
	Using 194 Lebedev grid points for other atoms
	Atomic van der Waals radii will be scaled by 1.20
 Remove points where switching function is < 1.0e-08
 Keep 1062 surface tesserae and discard 1176 interior tesserae
 Molecular Surface Area = 159.025 Angst**2

                       Distance Matrix (Angstroms)
             C (  1)   C (  2)   C (  3)   H (  4)   C (  5)   S (  6)
   C (  2)  1.398029
   C (  3)  2.377923  1.421026
   H (  4)  2.192658  1.100346  2.218091
   C (  5)  2.543063  2.346347  1.406622  3.383653
   S (  6)  1.760310  2.587400  2.612799  3.650445  1.758541
   C (  7)  3.796972  2.573094  1.503511  2.858636  2.577339  4.077403
   H (  8)  4.063575  2.684088  2.163788  2.514379  3.477329  4.750003
   H (  9)  4.437665  3.310733  2.175509  3.630130  2.929258  4.517189
   H ( 10)  4.437616  3.310693  2.175429  3.630083  2.929206  4.517161
   C ( 11)  1.440700  2.553131  3.769096  2.882548  3.956596  2.808868
   H ( 12)  1.800738  3.121318  4.102095  3.670496  3.959410  2.505125
   H ( 13)  2.295640  3.166705  4.464082  3.232714  4.777554  3.691652
   H ( 14)  2.176478  3.334294  4.464919  3.675234  4.505249  3.181337
   H ( 15)  3.609423  3.410867  2.263995  4.406406  1.096582  2.496273
             C (  7)   H (  8)   H (  9)   H ( 10)   C ( 11)   H ( 12)
   H (  8)  1.107208
   H (  9)  1.110090  1.787733
   H ( 10)  1.110032  1.787672  1.784800
   C ( 11)  5.109105  5.193455  5.767506  5.767443
   H ( 12)  5.537706  5.783354  6.057939  6.214912  1.080030
   H ( 13)  5.701407  5.651439  6.276488  6.475034  1.080007  1.527276
   H ( 14)  5.826181  5.944725  6.569989  6.343196  1.079945  1.527148
   H ( 15)  2.977332  4.030417  3.076228  3.076210  4.995043  4.893449
             H ( 13)   H ( 14)
   H ( 14)  1.775961
   H ( 15)  5.822939  5.482521
 
 Requested basis set is rimp2-cc-pVTZ
 There are 250 shells and 848 basis functions
 A cutoff of  1.0D-10 yielded   6161 shell pairs
 There are     45095 function pairs (     57990 Cartesian)
 Smallest overlap matrix eigenvalue = 9.60E-05

 Scale SEOQF with 1.000000e+00/1.000000e-01/1.000000e-01

 Standard Electronic Orientation quadrupole field applied
 Nucleus-field energy     =     0.0000000035 hartrees
 Guess from superposition of atomic densities
 Warning:  Energy on first SCF cycle will be non-variational
 SAD guess density has 60.000000 electrons

 -----------------------------------------------------------------------
  General SCF calculation program by
  Eric Jon Sundstrom, Paul Horn, Yuezhi Mao, Dmitri Zuev, Alec White,
  David Stuck, Shaama M.S., Shane Yost, Joonho Lee, David Small,
  Daniel Levine, Susi Lehtola, Hugh Burton, Evgeny Epifanovsky,
  Bang C. Huynh
 -----------------------------------------------------------------------
 Hartree-Fock
 A restricted SCF calculation will be
 performed using DIIS
 SCF converges when DIIS error is below 1.0e-06
 ---------------------------------------
  Cycle       Energy         DIIS error
 ---------------------------------------
    1    -632.1051501861      2.92e-02  
    2    -629.3410096881      1.94e-03  
    3    -629.4115719013      6.92e-04  
    4    -629.4192149901      3.48e-04  
    5    -629.4213755146      6.42e-05  
    6    -629.4215129073      2.65e-05  
    7    -629.4215476695      1.16e-05  
    8    -629.4215572503      5.07e-06  
    9    -629.4215586979      1.72e-06  
   10    -629.4215588772      5.88e-07  Convergence criterion met
 ---------------------------------------
 SCF time:   CPU 143.67s  wall 144.00s 

************** Final PCM Free Energy Summary **************
 G_electrostatic  =      -0.00522655 hartree =      -3.27970660 kcal/mol
 G_cavitation     =       0.00000000 hartree =       0.00000000 kcal/mol
 G_dispersion     =       0.00000000 hartree =       0.00000000 kcal/mol
 G_repulsion      =       0.00000000 hartree =       0.00000000 kcal/mol
 --------------------------------------------------
 Non-electrostatic Free Energy =       0.00000000 hartree =       0.00000000 kcal/mol
 Total                         =      -0.00522655 hartree =      -3.27970660 kcal/mol
 --------------------------------------------------
 SCF Energy (H0 + V/2)                       =    -629.42155888 
 Solute Internal Energy (H0)                 =    -629.41633233 
 Total Free Energy (H0 + V/2 + non-elec)     =    -629.42155888 hartree
                                             = -394967.98944701 kcal/mol
***********************************************************

 SCF   energy in the final basis set =     -629.4215588772
 Total energy in the final basis set =     -629.4215588772


 --------------------------------------------------------------
  Generalized many-body perturbation theory program
  by Joonho Lee, Fazle Rob, Xintian Feng, Evgeny Epifanovsky

 No regularization used 
 (reg. param. = 0.0000e+00)
  (P|Q)^-1/2 Time:  CPU 0.48 s  wall 0.48 s

 In RI-MP2 calculation: 
 # of frozen core orbitals: 11

 Components of the RIMP2 correlation energy:
        aaaa    correlation energy =        -0.1453707483 a.u.
        abab    correlation energy =        -0.8861698770 a.u.
        bbbb    correlation energy =        -0.1453707483 a.u.
        non-Brillouin singles      =        -0.0000000000 a.u.
        total same-spin energy     =        -0.2907414965 a.u.
        total opposite-spin energy =        -0.8861698770 a.u.

 Total  RIMP2   correlation energy =        -1.1769113736 a.u.
        RIMP2         total energy =      -630.5984702507 a.u.

 RI-MP2 Energy Time:  CPU 11.02 s  wall 11.06 s
 
 --------------------------------------------------------------
 
                    Orbital Energies (a.u.)
 --------------------------------------------------------------
 
 Alpha MOs
 -- Occupied --
-91.9799 -11.2776 -11.2559 -11.2469 -11.2276 -11.2267 -11.2172  -8.9797
 -6.6607  -6.6602  -6.6595  -1.1607  -1.0554  -0.9955  -0.9459  -0.8817
 -0.7471  -0.7183  -0.6486  -0.5908  -0.5753  -0.5653  -0.5538  -0.5473
 -0.5085  -0.4877  -0.4650  -0.4482  -0.3390  -0.2994
 -- Virtual --
  0.1059   0.1424   0.1497   0.1745   0.1888   0.1912   0.2008   0.2284
  0.2386   0.2416   0.2478   0.2669   0.2889   0.3224   0.3431   0.3485
  0.3798   0.3964   0.4043   0.4182   0.4395   0.4680   0.4702   0.4839
  0.4927   0.4992   0.5226   0.5288   0.5371   0.5618   0.5854   0.5958
  0.6005   0.6080   0.6105   0.6152   0.6303   0.6400   0.6427   0.6498
  0.6568   0.6687   0.6895   0.7122   0.7364   0.7404   0.7705   0.7832
  0.8015   0.8237   0.8420   0.8543   0.8696   0.8979   0.9237   0.9376
  0.9402   0.9636   0.9702   1.0080   1.0362   1.0435   1.0648   1.0755
  1.0808   1.0827   1.1069   1.1469   1.1641   1.1793   1.1992   1.2121
  1.2260   1.2433   1.2529   1.2614   1.2682   1.2894   1.3065   1.3245
  1.3602   1.3862   1.3991   1.4113   1.4269   1.4403   1.4525   1.4783
  1.4961   1.5159   1.5340   1.5369   1.5506   1.5565   1.5750   1.5878
  1.6119   1.6280   1.6473   1.6782   1.6838   1.6958   1.7130   1.7433
  1.7589   1.7857   1.8208   1.8359   1.8890   1.9015   1.9175   1.9681
  2.0008   2.0447   2.0923   2.1329   2.1854   2.1987   2.2185   2.2512
  2.2604   2.2960   2.3578   2.4169   2.4577   2.5013   2.5186   2.5516
  2.5698   2.6074   2.6271   2.6528   2.6811   2.7039   2.7093   2.7369
  2.7463   2.7614   2.7623   2.7900   2.8024   2.8434   2.8496   2.8906
  2.9107   2.9286   2.9452   2.9791   3.0031   3.0219   3.0465   3.0618
  3.0789   3.1126   3.1143   3.1335   3.1508   3.1594   3.1701   3.2042
  3.2346   3.2403   3.2548   3.2774   3.2824   3.2987   3.3111   3.3245
  3.3429   3.3681   3.3734   3.3824   3.3965   3.4240   3.4280   3.4351
  3.4537   3.4661   3.4945   3.5055   3.5078   3.5197   3.5279   3.5773
  3.5861   3.5899   3.6121   3.6232   3.6278   3.6353   3.6616   3.6699
  3.6949   3.7105   3.7186   3.7452   3.7644   3.7892   3.7906   3.8039
  3.8043   3.8298   3.8668   3.8885   3.9125   3.9223   3.9362   3.9578
  3.9671   3.9812   4.0106   4.0259   4.0350   4.0519   4.0853   4.1047
  4.1204   4.1493   4.1537   4.1780   4.1912   4.2237   4.2412   4.2445
  4.2809   4.2905   4.3064   4.3323   4.3404   4.3490   4.3945   4.4027
  4.4173   4.4269   4.4489   4.4575   4.4670   4.4861   4.5466   4.5555
  4.5942   4.6145   4.6440   4.6628   4.7115   4.7297   4.7648   4.7891
  4.8006   4.8239   4.8566   4.8936   4.9292   4.9765   5.0694   5.1025
  5.1052   5.1670   5.1900   5.2000   5.2551   5.2705   5.2905   5.3206
  5.3668   5.4057   5.4182   5.4423   5.4845   5.4977   5.5550   5.5669
  5.5893   5.6178   5.6233   5.6972   5.7243   5.8300   5.8399   5.8703
  5.9093   6.0085   6.0372   6.1324   6.2272   6.2552   6.3147   6.3528
  6.4623   6.5177   9.1871  11.4337  12.9453  13.9002  14.1878  14.4951
 --------------------------------------------------------------
 
          Ground-State Mulliken Net Atomic Charges

     Atom                 Charge (a.u.)
  ----------------------------------------
      1 C                     0.055385
      2 C                    -0.272903
      3 C                     0.040474
      4 H                     0.180611
      5 C                    -0.260313
      6 S                    -0.003182
      7 C                    -0.273521
      8 H                     0.101720
      9 H                     0.106940
     10 H                     0.107122
     11 C                    -0.373764
     12 H                     0.117330
     13 H                     0.153470
     14 H                     0.125804
     15 H                     0.194825
  ----------------------------------------
  Sum of atomic charges =     0.000000

 -----------------------------------------------------------------
                    Cartesian Multipole Moments
 -----------------------------------------------------------------
    Charge (ESU x 10^10)
                -0.0000
    Dipole Moment (Debye)
         X      -0.3202      Y      -0.1415      Z       0.8926
       Tot       0.9588
    Quadrupole Moments (Debye-Ang)
        XX     -53.8704     XY       0.8493     YY     -42.0328
        XZ      -0.2708     YZ       1.3282     ZZ     -48.7936
    Octopole Moments (Debye-Ang^2)
       XXX       0.3666    XXY     -32.5185    XYY      -2.2017
       YYY     -79.4752    XXZ      -1.6994    XYZ       1.0669
       YYZ      -6.7123    XZZ       0.1304    YZZ     -23.8850
       ZZZ       2.0927
    Hexadecapole Moments (Debye-Ang^3)
      XXXX     -78.7490   XXXY      -1.4897   XXYY    -158.4109
      XYYY       5.0033   YYYY    -812.5150   XXXZ      -0.1396
      XXYZ     -31.2315   XYYZ      -3.2004   YYYZ    -104.1521
      XXZZ    -101.4438   XYZZ      -0.6077   YYZZ    -216.4026
      XZZZ       0.7463   YZZZ    -104.7926   ZZZZ    -482.5793
 -----------------------------------------------------------------
 Total job time:  156.27s(wall), 155.04s(cpu) 
 Sun Jul 10 10:46:43 2022

        *************************************************************
        *                                                           *
        *  Thank you very much for using Q-Chem.  Have a nice day.  *
        *                                                           *
        *************************************************************


remove work dirs ./qchem878796.0 -- ./qchem878796.-1
rm -rf ./qchem878796
