You are running Q-Chem version: 5.4.0

#
# job setting
#
local host:  exp-2-28
current dir: /expanse/lustre/scratch/theleonzhang/temp_project/Hydrogenated_Impropers_Test
input file:  Methylthiophene_Phi_60_Theta_310_Methylthiophene_Hydrogenated_Improper.qcin
output file: 
nprocs     : 0
nthreads   : 1
#
# qchem installation setting
#
QC:          /cm/shared/apps/spack/cpu/opt/spack/linux-centos8-zen2/gcc-10.2.0/qchem-5.4-akfmr7b3t57bfs6qan3padb2wnb2i7cl
QCAUX:       /cm/shared/apps/spack/cpu/opt/spack/linux-centos8-zen2/gcc-10.2.0/qchem-5.4-akfmr7b3t57bfs6qan3padb2wnb2i7cl/qcaux
QCPROG:      /cm/shared/apps/spack/cpu/opt/spack/linux-centos8-zen2/gcc-10.2.0/qchem-5.4-akfmr7b3t57bfs6qan3padb2wnb2i7cl/exe/qcprog.exe_s
QCPROG_S:    /cm/shared/apps/spack/cpu/opt/spack/linux-centos8-zen2/gcc-10.2.0/qchem-5.4-akfmr7b3t57bfs6qan3padb2wnb2i7cl/exe/qcprog.exe_s
PARALLEL:    -DSERIAL
QCMPI:       mpich
#
# qchem directory setting
#
qcrun:       qchem1921116
QCSCRATCH:   .
QCLOCALSCR:  
QCTMPDIR:    .
QCFILEPREF:  ./qchem1921116
QCSAVEDIR:   
workdirs:    ./qchem1921116
workdir0:    ./qchem1921116
partmpdirs =  
#
# parallel setting
#
QCRSH:           ssh
QCMPI:           mpich
QCMPIRUN:        /cm/shared/apps/spack/cpu/opt/spack/linux-centos8-zen2/gcc-10.2.0/qchem-5.4-akfmr7b3t57bfs6qan3padb2wnb2i7cl/bin/mpi/mpirun_qchem
QCMACHINEFILE:   ./qchem1921116/hostfile

#
# env setting
#
exported envs:   QC QCAUX QCSCRATCH QCRUNNAME QCFILEPREF QCPROG QCPROG_S GUIFILE

Running Job 1 of 1 Methylthiophene_Phi_60_Theta_310_Methylthiophene_Hydrogenated_Improper.qcin
qchem Methylthiophene_Phi_60_Theta_310_Methylthiophene_Hydrogenated_Improper.qcin_1921116.0 ./qchem1921116/ 0
/cm/shared/apps/spack/cpu/opt/spack/linux-centos8-zen2/gcc-10.2.0/qchem-5.4-akfmr7b3t57bfs6qan3padb2wnb2i7cl/exe/qcprog.exe_s Methylthiophene_Phi_60_Theta_310_Methylthiophene_Hydrogenated_Improper.qcin_1921116.0 ./qchem1921116/
                  Welcome to Q-Chem
     A Quantum Leap Into The Future Of Chemistry


 Q-Chem 5.4, Q-Chem, Inc., Pleasanton, CA (2021)

 License issued to: University of California, San Diego (site)

 E. Epifanovsky,  A. T. B. Gilbert,  Xintian Feng,  Joonho Lee,  Yuezhi Mao,  
 N. Mardirossian,  P. Pokhilko,  A. White,  M. Wormit,  M. P. Coons,  
 A. L. Dempwolff,  Zhengting Gan,  D. Hait,  P. R. Horn,  L. D. Jacobson,  
 I. Kaliman,  J. Kussmann,  A. W. Lange,  Ka Un Lao,  D. S. Levine,  Jie Liu,  
 S. C. McKenzie,  A. F. Morrison,  K. Nanda,  F. Plasser,  D. R. Rehn,  
 M. L. Vidal,  Zhi-Qiang You,  Ying Zhu,  B. Alam,  B. Albrecht,  
 A. Aldossary,  E. Alguire,  J. H. Andersen,  D. Barton,  K. Begam,  A. Behn,  
 Y. A. Bernard,  E. J. Berquist,  H. Burton,  A. Carreras,  K. Carter-Fenk,  
 R. Chakraborty,  A. D. Chien,  K. D. Closser,  V. Cofer-Shabica,  
 S. Dasgupta,  Jia Deng,  M. de Wergifosse,  M. Diedenhofen,  Hainam Do,  
 S. Ehlert,  Po-Tung Fang,  S. Fatehi,  Qingguo Feng,  J. Gayvert,  
 Qinghui Ge,  G. Gidofalvi,  M. Goldey,  J. Gomes,  C. Gonzalez-Espinoza,  
 S. Gulania,  A. Gunina,  M. W. D. Hanson-Heine,  P. H. P. Harbach,  
 A. W. Hauser,  M. F. Herbst,  M. Hernandez Vera,  M. Hodecker,  
 Z. C. Holden,  S. Houck,  Xunkun Huang,  Kerwin Hui,  B. C. Huynh,  
 M. Ivanov,  Hyunjun Ji,  Hanjie Jiang,  B. Kaduk,  S. Kaehler,  
 K. Khistyaev,  Jaehoon Kim,  P. Klunzinger,  Z. Koczor-Benda,  
 Joong Hoon Koh,  D. Kosenkov,  L. Koulias,  T. Kowalczyk,  C. M. Krauter,  
 K. Kue,  A. Kunitsa,  T. Kus,  A. Landau,  K. V. Lawler,  D. Lefrancois,  
 S. Lehtola,  Rain Li,  Yi-Pei Li,  Jiashu Liang,  M. Liebenthal,  
 Hung-Hsuan Lin,  You-Sheng Lin,  Fenglai Liu,  Kuan-Yu Liu,  
 M. Loipersberger,  A. Luenser,  A. Manjanath,  P. Manohar,  E. Mansoor,  
 S. F. Manzer,  Shan-Ping Mao,  A. V. Marenich,  T. Markovich,  S. Mason,  
 S. A. Maurer,  P. F. McLaughlin,  M. F. S. J. Menger,  J.-M. Mewes,  
 S. A. Mewes,  P. Morgante,  J. W. Mullinax,  T. S. Nguyen-Beck,  
 K. J. Oosterbaan,  G. Paran,  Alexander C. Paul,  Suranjan K. Paul,  
 F. Pavosevic,  Zheng Pei,  S. Prager,  E. I. Proynov,  E. Ramos,  B. Rana,  
 A. E. Rask,  A. Rettig,  R. M. Richard,  F. Rob,  E. Rossomme,  T. Scheele,  
 M. Scheurer,  M. Schneider,  N. Sergueev,  S. M. Sharada,  W. Skomorowski,  
 D. W. Small,  C. J. Stein,  Yu-Chuan Su,  E. J. Sundstrom,  Zhen Tao,  
 J. Thirman,  T. Tsuchimochi,  N. M. Tubman,  S. P. Veccham,  O. Vydrov,  
 J. Wenzel,  J. Witte,  A. Yamada,  Kun Yao,  S. Yeganeh,  S. R. Yost,  
 A. Zech,  Igor Ying Zhang,  Xing Zhang,  Yu Zhang,  D. Zuev,  
 A. Aspuru-Guzik,  A. T. Bell,  N. A. Besley,  K. B. Bravaya,  B. R. Brooks,  
 D. Casanova,  Jeng-Da Chai,  S. Coriani,  C. J. Cramer,  
 A. E. DePrince, III,  R. A. DiStasio Jr.,  A. Dreuw,  B. D. Dunietz,  
 T. R. Furlani,  W. A. Goddard III,  S. Grimme,  S. Hammes-Schiffer,  
 T. Head-Gordon,  W. J. Hehre,  Chao-Ping Hsu,  T.-C. Jagau,  Yousung Jung,  
 A. Klamt,  Jing Kong,  D. S. Lambrecht,  WanZhen Liang,  N. J. Mayhall,  
 C. W. McCurdy,  J. B. Neaton,  C. Ochsenfeld,  J. A. Parkhill,  R. Peverati,  
 V. A. Rassolov,  Yihan Shao,  L. V. Slipchenko,  T. Stauch,  R. P. Steele,  
 J. E. Subotnik,  A. J. W. Thom,  A. Tkatchenko,  D. G. Truhlar,  
 T. Van Voorhis,  T. A. Wesolowski,  K. B. Whaley,  H. L. Woodcock III,  
 P. M. Zimmerman,  S. Faraji,  P. M. W. Gill,  M. Head-Gordon,  
 J. M. Herbert,  A. I. Krylov

 Contributors to earlier versions of Q-Chem not listed above: 
 R. D. Adamson,  B. Austin,  R. Baer,  J. Baker,  G. J. O. Beran,  
 K. Brandhorst,  S. T. Brown,  E. F. C. Byrd,  A. K. Chakraborty,  
 G. K. L. Chan,  Chun-Min Chang,  Yunqing Chen,  C.-L. Cheng,  
 Siu Hung Chien,  D. M. Chipman,  D. L. Crittenden,  H. Dachsel,  
 R. J. Doerksen,  A. D. Dutoi,  R. G. Edgar,  J. Fosso-Tande,  
 L. Fusti-Molnar,  D. Ghosh,  A. Ghysels,  A. Golubeva-Zadorozhnaya,  
 J. Gonthier,  M. S. Gordon,  S. R. Gwaltney,  G. Hawkins,  J. E. Herr,  
 A. Heyden,  S. Hirata,  E. G. Hohenstein,  G. Kedziora,  F. J. Keil,  
 C. Kelley,  Jihan Kim,  R. A. King,  R. Z. Khaliullin,  P. P. Korambath,  
 W. Kurlancheek,  A. Laurent,  A. M. Lee,  M. S. Lee,  S. V. Levchenko,  
 Ching Yeh Lin,  D. Liotard,  E. Livshits,  R. C. Lochan,  I. Lotan,  
 L. A. Martinez-Martinez,  P. E. Maslen,  N. Nair,  D. P. O'Neill,  
 D. Neuhauser,  E. Neuscamman,  C. M. Oana,  R. Olivares-Amaya,  R. Olson,  
 T. M. Perrine,  B. Peters,  P. A. Pieniazek,  A. Prociuk,  Y. M. Rhee,  
 J. Ritchie,  M. A. Rohrdanz,  E. Rosta,  N. J. Russ,  H. F. Schaefer III,  
 M. W. Schmidt,  N. E. Schultz,  S. Sharma,  N. Shenvi,  C. D. Sherrill,  
 A. C. Simmonett,  A. Sodt,  T. Stein,  D. Stuck,  K. S. Thanthiriwatte,  
 V. Vanovschi,  L. Vogt,  Tao Wang,  A. Warshel,  M. A. Watson,  
 C. F. Williams,  Q. Wu,  X. Xu,  Jun Yang,  W. Zhang,  Yan Zhao

 Please cite Q-Chem as follows:
 Y. Shao et al., Mol. Phys. 113, 184-215 (2015)
 DOI: 10.1080/00268976.2014.952696

 Q-Chem 5.4.0 for Intel X86 EM64T Linux

 Parts of Q-Chem use Armadillo 9.800.1 (Horizon Scraper).
 http://arma.sourceforge.net/

 Q-Chem begins on Sun Jul 10 10:07:46 2022  

 Host: 
0

     Scratch files written to ./qchem1921116//
 May1621 |scratch|qcdevops|jenkins|workspace|build_RNUM    
 Processing $rem in /cm/shared/apps/spack/cpu/opt/spack/linux-centos8-zen2/gcc-10.2.0/qchem-5.4-akfmr7b3t57bfs6qan3padb2wnb2i7cl/config/preferences:
 Processing $rem in /home/theleonzhang/.qchemrc:
 Symmetry turned off for PCM/SM12/SMD calculation
 Core orbitals will be frozen

 Checking the input file for inconsistencies... 	...done.

--------------------------------------------------------------
User input:
--------------------------------------------------------------
$molecule
0 1
C	-0.584792	-0.237129	0.010946
C	0.163108	0.194671	1.110346
C	1.361608	0.886571	0.787646
H	-0.156292	0.010271	2.147046
C	1.552708	0.996871	-0.601554
S	0.231408	0.234071	-1.475854
C	2.303708	1.430471	1.825546
H	1.935008	1.217571	2.847646
H	2.424108	2.530371	1.737146
H	3.316508	0.984671	1.737146
C	-0.584792	-1.677829	0.010946
H	-1.279092	-1.677529	0.838246
H	-1.212292	-2.381629	-0.515654
H	0.140808	-2.196729	0.619746
H	2.374808	1.471471	-1.150654
$end

$rem
JOBTYPE		SP
EXCHANGE	HF
CORRELATION	pRIMP2
BASIS		cc-pvtz
METHOD		rimp2
AUX_BASIS	rimp2-cc-pvtz
SOLVENT_METHOD	PCM
PURECART	11111
SYMMETRY	false
MEM_TOTAL	110000
SCF_CONVERGENCE = 6
THRESH=10
$end



$solvent
dielectric 4.90
$end
--------------------------------------------------------------
 ----------------------------------------------------------------
             Standard Nuclear Orientation (Angstroms)
    I     Atom           X                Y                Z
 ----------------------------------------------------------------
    1      C      -0.5847920000    -0.2371290000     0.0109460000
    2      C       0.1631080000     0.1946710000     1.1103460000
    3      C       1.3616080000     0.8865710000     0.7876460000
    4      H      -0.1562920000     0.0102710000     2.1470460000
    5      C       1.5527080000     0.9968710000    -0.6015540000
    6      S       0.2314080000     0.2340710000    -1.4758540000
    7      C       2.3037080000     1.4304710000     1.8255460000
    8      H       1.9350080000     1.2175710000     2.8476460000
    9      H       2.4241080000     2.5303710000     1.7371460000
   10      H       3.3165080000     0.9846710000     1.7371460000
   11      C      -0.5847920000    -1.6778290000     0.0109460000
   12      H      -1.2790920000    -1.6775290000     0.8382460000
   13      H      -1.2122920000    -2.3816290000    -0.5156540000
   14      H       0.1408080000    -2.1967290000     0.6197460000
   15      H       2.3748080000     1.4714710000    -1.1506540000
 ----------------------------------------------------------------
 Nuclear Repulsion Energy =         350.49888796 hartrees
 There are       30 alpha and       30 beta electrons

 Q-Chem warning in module forms1/BasisType.C, line 2236:

 You are not using the predefined 5D/6D in this basis set.

 Requested basis set is cc-pVTZ
 There are 120 shells and 326 basis functions

 Total QAlloc Memory Limit 110000 MB
 Mega-Array Size       188 MB
 MEM_STATIC part       192 MB
 Discretize the solute cavity surface with Lebedev spheres
	Using 110 Lebedev grid points for each H atom
	Using 194 Lebedev grid points for other atoms
	Atomic van der Waals radii will be scaled by 1.20
 Remove points where switching function is < 1.0e-08
 Keep 1035 surface tesserae and discard 1203 interior tesserae
 Molecular Surface Area = 156.250 Angst**2

                       Distance Matrix (Angstroms)
             C (  1)   C (  2)   C (  3)   H (  4)   C (  5)   S (  6)
   C (  2)  1.398029
   C (  3)  2.377906  1.421008
   H (  4)  2.192656  1.100348  2.218083
   C (  5)  2.542994  2.346298  1.406614  3.383617
   S (  6)  1.760337  2.587402  2.612765  3.650452  1.758436
   C (  7)  3.796985  2.573107  1.503535  2.858659  2.577368  4.077382
   H (  8)  4.063547  2.684058  2.163781  2.514349  3.477333  4.749966
   H (  9)  4.437601  3.310664  2.175439  3.630067  2.929245  4.517111
   H ( 10)  4.437646  3.310726  2.175502  3.630126  2.929276  4.517146
   C ( 11)  1.440700  2.296582  3.311779  2.756124  3.478230  2.555801
   H ( 12)  1.800342  2.378889  3.681096  2.412946  4.152653  3.360191
   H ( 13)  2.295636  3.342592  4.359436  3.731795  4.366562  3.138175
   H ( 14)  2.176503  2.441307  3.320434  2.700326  3.699205  3.210691
   H ( 15)  3.609413  3.410859  2.263998  4.406404  1.096633  2.496213
             C (  7)   H (  8)   H (  9)   H ( 10)   C ( 11)   H ( 12)
   H (  8)  1.107228
   H (  9)  1.109996  1.787700
   H ( 10)  1.110097  1.787735  1.784815
   C ( 11)  4.614947  4.772798  5.453640  5.028799
   H ( 12)  4.844676  4.769668  5.676983  5.386545  1.080036
   H ( 13)  5.689954  5.845642  6.513544  6.075945  1.079999  1.527503
   H ( 14)  4.391887  4.454227  5.367263  4.631950  1.079995  1.527556
   H ( 15)  2.977331  4.030421  3.076213  3.076225  4.475113  5.217558
             H ( 13)   H ( 14)
   H ( 14)  1.776007
   H ( 15)  5.302536  4.645510
 
 Requested basis set is rimp2-cc-pVTZ
 There are 250 shells and 848 basis functions
 A cutoff of  1.0D-10 yielded   6365 shell pairs
 There are     46803 function pairs (     60180 Cartesian)
 Smallest overlap matrix eigenvalue = 1.24E-04

 Scale SEOQF with 1.000000e-01/1.000000e-01/1.000000e-01

 Standard Electronic Orientation quadrupole field applied
 Nucleus-field energy     =    -0.0000000016 hartrees
 Guess from superposition of atomic densities
 Warning:  Energy on first SCF cycle will be non-variational
 SAD guess density has 60.000000 electrons

 -----------------------------------------------------------------------
  General SCF calculation program by
  Eric Jon Sundstrom, Paul Horn, Yuezhi Mao, Dmitri Zuev, Alec White,
  David Stuck, Shaama M.S., Shane Yost, Joonho Lee, David Small,
  Daniel Levine, Susi Lehtola, Hugh Burton, Evgeny Epifanovsky,
  Bang C. Huynh
 -----------------------------------------------------------------------
 Hartree-Fock
 A restricted SCF calculation will be
 performed using DIIS
 SCF converges when DIIS error is below 1.0e-06
 ---------------------------------------
  Cycle       Energy         DIIS error
 ---------------------------------------
    1    -632.2038881303      2.96e-02  
    2    -629.2701215697      1.91e-03  
    3    -629.3399526128      6.57e-04  
    4    -629.3473745810      3.59e-04  
    5    -629.3496348770      6.68e-05  
    6    -629.3498155976      3.57e-05  
    7    -629.3498757778      1.53e-05  
    8    -629.3498991167      8.30e-06  
    9    -629.3499040069      2.99e-06  
   10    -629.3499046314      1.14e-06  
   11    -629.3499047251      4.85e-07  Convergence criterion met
 ---------------------------------------
 SCF time:   CPU 163.03s  wall 163.00s 

************** Final PCM Free Energy Summary **************
 G_electrostatic  =      -0.00619100 hartree =      -3.88491326 kcal/mol
 G_cavitation     =       0.00000000 hartree =       0.00000000 kcal/mol
 G_dispersion     =       0.00000000 hartree =       0.00000000 kcal/mol
 G_repulsion      =       0.00000000 hartree =       0.00000000 kcal/mol
 --------------------------------------------------
 Non-electrostatic Free Energy =       0.00000000 hartree =       0.00000000 kcal/mol
 Total                         =      -0.00619100 hartree =      -3.88491326 kcal/mol
 --------------------------------------------------
 SCF Energy (H0 + V/2)                       =    -629.34990473 
 Solute Internal Energy (H0)                 =    -629.34371372 
 Total Free Energy (H0 + V/2 + non-elec)     =    -629.34990473 hartree
                                             = -394923.02578792 kcal/mol
***********************************************************

 SCF   energy in the final basis set =     -629.3499047251
 Total energy in the final basis set =     -629.3499047251


 --------------------------------------------------------------
  Generalized many-body perturbation theory program
  by Joonho Lee, Fazle Rob, Xintian Feng, Evgeny Epifanovsky

 No regularization used 
 (reg. param. = 0.0000e+00)
  (P|Q)^-1/2 Time:  CPU 0.48 s  wall 0.48 s

 In RI-MP2 calculation: 
 # of frozen core orbitals: 11

 Components of the RIMP2 correlation energy:
        aaaa    correlation energy =        -0.1481000707 a.u.
        abab    correlation energy =        -0.8955535049 a.u.
        bbbb    correlation energy =        -0.1481000707 a.u.
        non-Brillouin singles      =        -0.0000000000 a.u.
        total same-spin energy     =        -0.2962001414 a.u.
        total opposite-spin energy =        -0.8955535049 a.u.

 Total  RIMP2   correlation energy =        -1.1917536463 a.u.
        RIMP2         total energy =      -630.5416583713 a.u.

 RI-MP2 Energy Time:  CPU 11.23 s  wall 11.25 s
 
 --------------------------------------------------------------
 
                    Orbital Energies (a.u.)
 --------------------------------------------------------------
 
 Alpha MOs
 -- Occupied --
-91.9711 -11.2825 -11.2542 -11.2503 -11.2441 -11.2296 -11.2080  -8.9723
 -6.6531  -6.6521  -6.6520  -1.1736  -1.0560  -1.0008  -0.9350  -0.8836
 -0.7482  -0.7327  -0.6430  -0.5902  -0.5852  -0.5656  -0.5542  -0.5436
 -0.5187  -0.4840  -0.4608  -0.4144  -0.3358  -0.2981
 -- Virtual --
  0.0623   0.1411   0.1582   0.1736   0.1800   0.1886   0.2091   0.2214
  0.2303   0.2404   0.2495   0.2632   0.2838   0.3074   0.3349   0.3518
  0.3674   0.4038   0.4135   0.4169   0.4279   0.4474   0.4546   0.4651
  0.4804   0.4888   0.5078   0.5390   0.5416   0.5554   0.5666   0.5920
  0.5955   0.5974   0.6021   0.6180   0.6286   0.6357   0.6421   0.6465
  0.6583   0.6687   0.6878   0.6956   0.7183   0.7370   0.7704   0.7792
  0.8006   0.8119   0.8286   0.8528   0.8732   0.8923   0.9143   0.9420
  0.9560   0.9777   1.0107   1.0271   1.0400   1.0482   1.0630   1.0783
  1.0944   1.1028   1.1121   1.1472   1.1768   1.1924   1.2018   1.2140
  1.2220   1.2366   1.2640   1.2758   1.2915   1.3011   1.3056   1.3186
  1.3502   1.3808   1.3920   1.4093   1.4191   1.4347   1.4598   1.4748
  1.4984   1.5091   1.5173   1.5271   1.5394   1.5553   1.5635   1.5810
  1.5960   1.6295   1.6532   1.6682   1.6798   1.7008   1.7242   1.7343
  1.7529   1.7751   1.7999   1.8395   1.8694   1.9240   1.9392   1.9647
  1.9712   2.0464   2.0801   2.1292   2.1476   2.1851   2.2038   2.2061
  2.2575   2.2667   2.3498   2.3941   2.4179   2.4669   2.5230   2.5645
  2.5756   2.5944   2.6303   2.6536   2.6578   2.6890   2.7059   2.7392
  2.7660   2.7844   2.7892   2.8178   2.8233   2.8386   2.8829   2.9050
  2.9468   2.9573   2.9644   2.9837   2.9908   3.0157   3.0335   3.0711
  3.1005   3.1102   3.1150   3.1359   3.1549   3.1626   3.1757   3.1942
  3.2152   3.2232   3.2541   3.2683   3.2757   3.2877   3.2915   3.3279
  3.3344   3.3555   3.3725   3.3854   3.3958   3.4096   3.4327   3.4477
  3.4575   3.4751   3.4956   3.5076   3.5192   3.5300   3.5459   3.5662
  3.5772   3.5804   3.6138   3.6293   3.6490   3.6645   3.6824   3.6976
  3.7027   3.7301   3.7331   3.7540   3.7795   3.7871   3.8127   3.8199
  3.8308   3.8473   3.8737   3.8907   3.9188   3.9278   3.9482   3.9696
  3.9891   4.0205   4.0345   4.0369   4.0386   4.0662   4.1038   4.1181
  4.1382   4.1604   4.1806   4.1989   4.2216   4.2344   4.2405   4.2602
  4.2952   4.2985   4.3219   4.3328   4.3567   4.3891   4.4012   4.4267
  4.4291   4.4518   4.4734   4.4824   4.5302   4.5517   4.5589   4.5902
  4.6077   4.6510   4.6748   4.6756   4.6914   4.7207   4.7666   4.7965
  4.8277   4.8588   4.8804   4.8958   4.9263   4.9560   4.9784   5.0948
  5.1069   5.1278   5.1413   5.1859   5.2103   5.2638   5.2812   5.3154
  5.3582   5.4028   5.4322   5.4402   5.4789   5.5077   5.5493   5.5546
  5.6079   5.6185   5.6263   5.6909   5.7182   5.8063   5.8585   5.8731
  5.9322   5.9848   6.0699   6.0884   6.2076   6.2293   6.2553   6.3435
  6.4144   6.4939   9.3208  11.7980  12.7997  13.6915  14.1692  14.4403
 --------------------------------------------------------------
 
          Ground-State Mulliken Net Atomic Charges

     Atom                 Charge (a.u.)
  ----------------------------------------
      1 C                    -0.094554
      2 C                    -0.133576
      3 C                    -0.019285
      4 H                     0.186157
      5 C                    -0.181915
      6 S                     0.013460
      7 C                    -0.267134
      8 H                     0.102092
      9 H                     0.106995
     10 H                     0.105203
     11 C                    -0.383869
     12 H                     0.108121
     13 H                     0.136963
     14 H                     0.124547
     15 H                     0.196795
  ----------------------------------------
  Sum of atomic charges =     0.000000

 -----------------------------------------------------------------
                    Cartesian Multipole Moments
 -----------------------------------------------------------------
    Charge (ESU x 10^10)
                -0.0000
    Dipole Moment (Debye)
         X       2.0893      Y       0.1611      Z       2.1774
       Tot       3.0219
    Quadrupole Moments (Debye-Ang)
        XX     -47.5038     XY       5.2001     YY     -50.0416
        XZ      -0.0976     YZ      -0.5333     ZZ     -47.9541
    Octopole Moments (Debye-Ang^2)
       XXX     -76.6340    XXY      -4.2761    XYY     -27.2283
       YYY     -34.9647    XXZ      -5.7152    XYZ      -2.7095
       YYZ      -2.2028    XZZ     -26.0942    YZZ      -8.9881
       ZZZ       2.5008
    Hexadecapole Moments (Debye-Ang^3)
      XXXX    -487.7679   XXXY    -137.5290   XXYY    -137.6735
      XYYY    -145.4487   YYYY    -378.7116   XXXZ     -87.9574
      XXYZ     -19.1659   XYYZ     -27.1753   YYYZ     -46.2330
      XXZZ    -158.5409   XYZZ     -43.8175   YYZZ    -147.3403
      XZZZ     -86.3014   YZZZ     -45.4576   ZZZZ    -480.0923
 -----------------------------------------------------------------
 Total job time:  175.93s(wall), 174.61s(cpu) 
 Sun Jul 10 10:10:42 2022

        *************************************************************
        *                                                           *
        *  Thank you very much for using Q-Chem.  Have a nice day.  *
        *                                                           *
        *************************************************************


remove work dirs ./qchem1921116.0 -- ./qchem1921116.-1
rm -rf ./qchem1921116
