You are running Q-Chem version: 5.4.0

#
# job setting
#
local host:  exp-5-33
current dir: /expanse/lustre/scratch/theleonzhang/temp_project/Hydrogenated_Impropers_Test
input file:  Methylthiophene_Phi_5_Theta_70_Methylthiophene_Hydrogenated_Improper_Alternate.qcin
output file: 
nprocs     : 0
nthreads   : 1
#
# qchem installation setting
#
QC:          /cm/shared/apps/spack/cpu/opt/spack/linux-centos8-zen2/gcc-10.2.0/qchem-5.4-akfmr7b3t57bfs6qan3padb2wnb2i7cl
QCAUX:       /cm/shared/apps/spack/cpu/opt/spack/linux-centos8-zen2/gcc-10.2.0/qchem-5.4-akfmr7b3t57bfs6qan3padb2wnb2i7cl/qcaux
QCPROG:      /cm/shared/apps/spack/cpu/opt/spack/linux-centos8-zen2/gcc-10.2.0/qchem-5.4-akfmr7b3t57bfs6qan3padb2wnb2i7cl/exe/qcprog.exe_s
QCPROG_S:    /cm/shared/apps/spack/cpu/opt/spack/linux-centos8-zen2/gcc-10.2.0/qchem-5.4-akfmr7b3t57bfs6qan3padb2wnb2i7cl/exe/qcprog.exe_s
PARALLEL:    -DSERIAL
QCMPI:       mpich
#
# qchem directory setting
#
qcrun:       qchem2177673
QCSCRATCH:   .
QCLOCALSCR:  
QCTMPDIR:    .
QCFILEPREF:  ./qchem2177673
QCSAVEDIR:   
workdirs:    ./qchem2177673
workdir0:    ./qchem2177673
partmpdirs =  
#
# parallel setting
#
QCRSH:           ssh
QCMPI:           mpich
QCMPIRUN:        /cm/shared/apps/spack/cpu/opt/spack/linux-centos8-zen2/gcc-10.2.0/qchem-5.4-akfmr7b3t57bfs6qan3padb2wnb2i7cl/bin/mpi/mpirun_qchem
QCMACHINEFILE:   ./qchem2177673/hostfile

#
# env setting
#
exported envs:   QC QCAUX QCSCRATCH QCRUNNAME QCFILEPREF QCPROG QCPROG_S GUIFILE

Running Job 1 of 1 Methylthiophene_Phi_5_Theta_70_Methylthiophene_Hydrogenated_Improper_Alternate.qcin
qchem Methylthiophene_Phi_5_Theta_70_Methylthiophene_Hydrogenated_Improper_Alternate.qcin_2177673.0 ./qchem2177673/ 0
/cm/shared/apps/spack/cpu/opt/spack/linux-centos8-zen2/gcc-10.2.0/qchem-5.4-akfmr7b3t57bfs6qan3padb2wnb2i7cl/exe/qcprog.exe_s Methylthiophene_Phi_5_Theta_70_Methylthiophene_Hydrogenated_Improper_Alternate.qcin_2177673.0 ./qchem2177673/
                  Welcome to Q-Chem
     A Quantum Leap Into The Future Of Chemistry


 Q-Chem 5.4, Q-Chem, Inc., Pleasanton, CA (2021)

 License issued to: University of California, San Diego (site)

 E. Epifanovsky,  A. T. B. Gilbert,  Xintian Feng,  Joonho Lee,  Yuezhi Mao,  
 N. Mardirossian,  P. Pokhilko,  A. White,  M. Wormit,  M. P. Coons,  
 A. L. Dempwolff,  Zhengting Gan,  D. Hait,  P. R. Horn,  L. D. Jacobson,  
 I. Kaliman,  J. Kussmann,  A. W. Lange,  Ka Un Lao,  D. S. Levine,  Jie Liu,  
 S. C. McKenzie,  A. F. Morrison,  K. Nanda,  F. Plasser,  D. R. Rehn,  
 M. L. Vidal,  Zhi-Qiang You,  Ying Zhu,  B. Alam,  B. Albrecht,  
 A. Aldossary,  E. Alguire,  J. H. Andersen,  D. Barton,  K. Begam,  A. Behn,  
 Y. A. Bernard,  E. J. Berquist,  H. Burton,  A. Carreras,  K. Carter-Fenk,  
 R. Chakraborty,  A. D. Chien,  K. D. Closser,  V. Cofer-Shabica,  
 S. Dasgupta,  Jia Deng,  M. de Wergifosse,  M. Diedenhofen,  Hainam Do,  
 S. Ehlert,  Po-Tung Fang,  S. Fatehi,  Qingguo Feng,  J. Gayvert,  
 Qinghui Ge,  G. Gidofalvi,  M. Goldey,  J. Gomes,  C. Gonzalez-Espinoza,  
 S. Gulania,  A. Gunina,  M. W. D. Hanson-Heine,  P. H. P. Harbach,  
 A. W. Hauser,  M. F. Herbst,  M. Hernandez Vera,  M. Hodecker,  
 Z. C. Holden,  S. Houck,  Xunkun Huang,  Kerwin Hui,  B. C. Huynh,  
 M. Ivanov,  Hyunjun Ji,  Hanjie Jiang,  B. Kaduk,  S. Kaehler,  
 K. Khistyaev,  Jaehoon Kim,  P. Klunzinger,  Z. Koczor-Benda,  
 Joong Hoon Koh,  D. Kosenkov,  L. Koulias,  T. Kowalczyk,  C. M. Krauter,  
 K. Kue,  A. Kunitsa,  T. Kus,  A. Landau,  K. V. Lawler,  D. Lefrancois,  
 S. Lehtola,  Rain Li,  Yi-Pei Li,  Jiashu Liang,  M. Liebenthal,  
 Hung-Hsuan Lin,  You-Sheng Lin,  Fenglai Liu,  Kuan-Yu Liu,  
 M. Loipersberger,  A. Luenser,  A. Manjanath,  P. Manohar,  E. Mansoor,  
 S. F. Manzer,  Shan-Ping Mao,  A. V. Marenich,  T. Markovich,  S. Mason,  
 S. A. Maurer,  P. F. McLaughlin,  M. F. S. J. Menger,  J.-M. Mewes,  
 S. A. Mewes,  P. Morgante,  J. W. Mullinax,  T. S. Nguyen-Beck,  
 K. J. Oosterbaan,  G. Paran,  Alexander C. Paul,  Suranjan K. Paul,  
 F. Pavosevic,  Zheng Pei,  S. Prager,  E. I. Proynov,  E. Ramos,  B. Rana,  
 A. E. Rask,  A. Rettig,  R. M. Richard,  F. Rob,  E. Rossomme,  T. Scheele,  
 M. Scheurer,  M. Schneider,  N. Sergueev,  S. M. Sharada,  W. Skomorowski,  
 D. W. Small,  C. J. Stein,  Yu-Chuan Su,  E. J. Sundstrom,  Zhen Tao,  
 J. Thirman,  T. Tsuchimochi,  N. M. Tubman,  S. P. Veccham,  O. Vydrov,  
 J. Wenzel,  J. Witte,  A. Yamada,  Kun Yao,  S. Yeganeh,  S. R. Yost,  
 A. Zech,  Igor Ying Zhang,  Xing Zhang,  Yu Zhang,  D. Zuev,  
 A. Aspuru-Guzik,  A. T. Bell,  N. A. Besley,  K. B. Bravaya,  B. R. Brooks,  
 D. Casanova,  Jeng-Da Chai,  S. Coriani,  C. J. Cramer,  
 A. E. DePrince, III,  R. A. DiStasio Jr.,  A. Dreuw,  B. D. Dunietz,  
 T. R. Furlani,  W. A. Goddard III,  S. Grimme,  S. Hammes-Schiffer,  
 T. Head-Gordon,  W. J. Hehre,  Chao-Ping Hsu,  T.-C. Jagau,  Yousung Jung,  
 A. Klamt,  Jing Kong,  D. S. Lambrecht,  WanZhen Liang,  N. J. Mayhall,  
 C. W. McCurdy,  J. B. Neaton,  C. Ochsenfeld,  J. A. Parkhill,  R. Peverati,  
 V. A. Rassolov,  Yihan Shao,  L. V. Slipchenko,  T. Stauch,  R. P. Steele,  
 J. E. Subotnik,  A. J. W. Thom,  A. Tkatchenko,  D. G. Truhlar,  
 T. Van Voorhis,  T. A. Wesolowski,  K. B. Whaley,  H. L. Woodcock III,  
 P. M. Zimmerman,  S. Faraji,  P. M. W. Gill,  M. Head-Gordon,  
 J. M. Herbert,  A. I. Krylov

 Contributors to earlier versions of Q-Chem not listed above: 
 R. D. Adamson,  B. Austin,  R. Baer,  J. Baker,  G. J. O. Beran,  
 K. Brandhorst,  S. T. Brown,  E. F. C. Byrd,  A. K. Chakraborty,  
 G. K. L. Chan,  Chun-Min Chang,  Yunqing Chen,  C.-L. Cheng,  
 Siu Hung Chien,  D. M. Chipman,  D. L. Crittenden,  H. Dachsel,  
 R. J. Doerksen,  A. D. Dutoi,  R. G. Edgar,  J. Fosso-Tande,  
 L. Fusti-Molnar,  D. Ghosh,  A. Ghysels,  A. Golubeva-Zadorozhnaya,  
 J. Gonthier,  M. S. Gordon,  S. R. Gwaltney,  G. Hawkins,  J. E. Herr,  
 A. Heyden,  S. Hirata,  E. G. Hohenstein,  G. Kedziora,  F. J. Keil,  
 C. Kelley,  Jihan Kim,  R. A. King,  R. Z. Khaliullin,  P. P. Korambath,  
 W. Kurlancheek,  A. Laurent,  A. M. Lee,  M. S. Lee,  S. V. Levchenko,  
 Ching Yeh Lin,  D. Liotard,  E. Livshits,  R. C. Lochan,  I. Lotan,  
 L. A. Martinez-Martinez,  P. E. Maslen,  N. Nair,  D. P. O'Neill,  
 D. Neuhauser,  E. Neuscamman,  C. M. Oana,  R. Olivares-Amaya,  R. Olson,  
 T. M. Perrine,  B. Peters,  P. A. Pieniazek,  A. Prociuk,  Y. M. Rhee,  
 J. Ritchie,  M. A. Rohrdanz,  E. Rosta,  N. J. Russ,  H. F. Schaefer III,  
 M. W. Schmidt,  N. E. Schultz,  S. Sharma,  N. Shenvi,  C. D. Sherrill,  
 A. C. Simmonett,  A. Sodt,  T. Stein,  D. Stuck,  K. S. Thanthiriwatte,  
 V. Vanovschi,  L. Vogt,  Tao Wang,  A. Warshel,  M. A. Watson,  
 C. F. Williams,  Q. Wu,  X. Xu,  Jun Yang,  W. Zhang,  Yan Zhao

 Please cite Q-Chem as follows:
 Y. Shao et al., Mol. Phys. 113, 184-215 (2015)
 DOI: 10.1080/00268976.2014.952696

 Q-Chem 5.4.0 for Intel X86 EM64T Linux

 Parts of Q-Chem use Armadillo 9.800.1 (Horizon Scraper).
 http://arma.sourceforge.net/

 Q-Chem begins on Sun Jul 10 10:03:47 2022  

 Host: 
0

     Scratch files written to ./qchem2177673//
 May1621 |scratch|qcdevops|jenkins|workspace|build_RNUM    
 Processing $rem in /cm/shared/apps/spack/cpu/opt/spack/linux-centos8-zen2/gcc-10.2.0/qchem-5.4-akfmr7b3t57bfs6qan3padb2wnb2i7cl/config/preferences:
 Processing $rem in /home/theleonzhang/.qchemrc:
 Symmetry turned off for PCM/SM12/SMD calculation
 Core orbitals will be frozen

 Checking the input file for inconsistencies... 	...done.

--------------------------------------------------------------
User input:
--------------------------------------------------------------
$molecule
0 1
C	-0.056946	-0.573729	0.019394
C	0.018354	0.286571	1.118794
C	0.138954	1.665271	0.796094
H	-0.013746	-0.080829	2.155494
C	0.158254	1.885071	-0.593106
S	0.025254	0.365071	-1.467406
C	0.233854	2.748871	1.833994
H	0.196754	2.324771	2.856094
H	-0.598146	3.478371	1.745594
H	1.179854	3.322871	1.745594
C	-0.056946	-2.014429	0.019394
H	-0.426246	-2.014129	-0.995506
H	0.712854	-2.718229	-0.260706
H	-0.946946	-2.533329	0.343294
H	0.240954	2.830671	-1.142206
$end

$rem
JOBTYPE		SP
EXCHANGE	HF
CORRELATION	pRIMP2
BASIS		cc-pvtz
METHOD		rimp2
AUX_BASIS	rimp2-cc-pvtz
SOLVENT_METHOD	PCM
PURECART	11111
SYMMETRY	false
MEM_TOTAL	110000
SCF_CONVERGENCE = 6
THRESH=10
$end



$solvent
dielectric 4.90
$end
--------------------------------------------------------------
 ----------------------------------------------------------------
             Standard Nuclear Orientation (Angstroms)
    I     Atom           X                Y                Z
 ----------------------------------------------------------------
    1      C      -0.0569460000    -0.5737290000     0.0193940000
    2      C       0.0183540000     0.2865710000     1.1187940000
    3      C       0.1389540000     1.6652710000     0.7960940000
    4      H      -0.0137460000    -0.0808290000     2.1554940000
    5      C       0.1582540000     1.8850710000    -0.5931060000
    6      S       0.0252540000     0.3650710000    -1.4674060000
    7      C       0.2338540000     2.7488710000     1.8339940000
    8      H       0.1967540000     2.3247710000     2.8560940000
    9      H      -0.5981460000     3.4783710000     1.7455940000
   10      H       1.1798540000     3.3228710000     1.7455940000
   11      C      -0.0569460000    -2.0144290000     0.0193940000
   12      H      -0.4262460000    -2.0141290000    -0.9955060000
   13      H       0.7128540000    -2.7182290000    -0.2607060000
   14      H      -0.9469460000    -2.5333290000     0.3432940000
   15      H       0.2409540000     2.8306710000    -1.1422060000
 ----------------------------------------------------------------
 Nuclear Repulsion Energy =         344.67151686 hartrees
 There are       30 alpha and       30 beta electrons

 Q-Chem warning in module forms1/BasisType.C, line 2236:

 You are not using the predefined 5D/6D in this basis set.

 Requested basis set is cc-pVTZ
 There are 120 shells and 326 basis functions

 Total QAlloc Memory Limit 110000 MB
 Mega-Array Size       188 MB
 MEM_STATIC part       192 MB
 Discretize the solute cavity surface with Lebedev spheres
	Using 110 Lebedev grid points for each H atom
	Using 194 Lebedev grid points for other atoms
	Atomic van der Waals radii will be scaled by 1.20
 Remove points where switching function is < 1.0e-08
 Keep 1067 surface tesserae and discard 1171 interior tesserae
 Molecular Surface Area = 158.518 Angst**2

                       Distance Matrix (Angstroms)
             C (  1)   C (  2)   C (  3)   H (  4)   C (  5)   S (  6)
   C (  2)  1.398022
   C (  3)  2.377974  1.421089
   H (  4)  2.192656  1.100345  2.218141
   C (  5)  2.543062  2.346354  1.406613  3.383659
   S (  6)  1.760306  2.587400  2.612830  3.650445  1.758548
   C (  7)  3.796974  2.573106  1.503473  2.858648  2.577340  4.077408
   H (  8)  4.063562  2.684082  2.163765  2.514371  3.477326  4.749999
   H (  9)  4.437587  3.310670  2.175362  3.630075  2.929209  4.517149
   H ( 10)  4.437672  3.310752  2.175468  3.630134  2.929241  4.517195
   C ( 11)  1.440700  2.551265  3.765877  2.881597  3.953172  2.807018
   H ( 12)  1.800321  3.156130  4.131255  3.719759  3.963247  2.467212
   H ( 13)  2.295632  3.378487  4.545466  3.649911  4.648488  3.381665
   H ( 14)  2.176475  3.079779  4.360327  3.188995  4.649793  3.553101
   H ( 15)  3.609432  3.410882  2.263972  4.406419  1.096590  2.496290
             C (  7)   H (  8)   H (  9)   H ( 10)   C ( 11)   H ( 12)
   H (  8)  1.107215
   H (  9)  1.110049  1.787699
   H ( 10)  1.110048  1.787708  1.784787
   C ( 11)  5.105523  5.190365  5.783037  5.744233
   H ( 12)  5.579245  5.835153  6.140907  6.211019  1.080002
   H ( 13)  5.874214  5.950853  6.643930  6.382650  1.079992  1.527494
   H ( 14)  5.614099  5.587786  6.182932  6.386298  1.079939  1.527443
   H ( 15)  2.977332  4.030421  3.076198  3.076229  4.991298  4.892726
             H ( 13)   H ( 14)
   H ( 14)  1.775934
   H ( 15)  5.638264  5.691249
 
 Requested basis set is rimp2-cc-pVTZ
 There are 250 shells and 848 basis functions
 A cutoff of  1.0D-10 yielded   6170 shell pairs
 There are     45146 function pairs (     58054 Cartesian)
 Smallest overlap matrix eigenvalue = 9.98E-05

 Scale SEOQF with 1.000000e+00/1.000000e-01/1.000000e-01

 Standard Electronic Orientation quadrupole field applied
 Nucleus-field energy     =     0.0000000038 hartrees
 Guess from superposition of atomic densities
 Warning:  Energy on first SCF cycle will be non-variational
 SAD guess density has 60.000000 electrons

 -----------------------------------------------------------------------
  General SCF calculation program by
  Eric Jon Sundstrom, Paul Horn, Yuezhi Mao, Dmitri Zuev, Alec White,
  David Stuck, Shaama M.S., Shane Yost, Joonho Lee, David Small,
  Daniel Levine, Susi Lehtola, Hugh Burton, Evgeny Epifanovsky,
  Bang C. Huynh
 -----------------------------------------------------------------------
 Hartree-Fock
 A restricted SCF calculation will be
 performed using DIIS
 SCF converges when DIIS error is below 1.0e-06
 ---------------------------------------
  Cycle       Energy         DIIS error
 ---------------------------------------
    1    -632.1071635052      2.92e-02  
    2    -629.3402859550      1.94e-03  
    3    -629.4107323143      6.80e-04  
    4    -629.4182631880      3.41e-04  
    5    -629.4203465978      6.41e-05  
    6    -629.4204825834      2.62e-05  
    7    -629.4205168917      1.16e-05  
    8    -629.4205263647      4.97e-06  
    9    -629.4205277878      1.75e-06  
   10    -629.4205279636      5.49e-07  Convergence criterion met
 ---------------------------------------
 SCF time:   CPU 144.00s  wall 145.00s 

************** Final PCM Free Energy Summary **************
 G_electrostatic  =      -0.00510887 hartree =      -3.20586597 kcal/mol
 G_cavitation     =       0.00000000 hartree =       0.00000000 kcal/mol
 G_dispersion     =       0.00000000 hartree =       0.00000000 kcal/mol
 G_repulsion      =       0.00000000 hartree =       0.00000000 kcal/mol
 --------------------------------------------------
 Non-electrostatic Free Energy =       0.00000000 hartree =       0.00000000 kcal/mol
 Total                         =      -0.00510887 hartree =      -3.20586597 kcal/mol
 --------------------------------------------------
 SCF Energy (H0 + V/2)                       =    -629.42052796 
 Solute Internal Energy (H0)                 =    -629.41541909 
 Total Free Energy (H0 + V/2 + non-elec)     =    -629.42052796 hartree
                                             = -394967.34253898 kcal/mol
***********************************************************

 SCF   energy in the final basis set =     -629.4205279636
 Total energy in the final basis set =     -629.4205279636


 --------------------------------------------------------------
  Generalized many-body perturbation theory program
  by Joonho Lee, Fazle Rob, Xintian Feng, Evgeny Epifanovsky

 No regularization used 
 (reg. param. = 0.0000e+00)
  (P|Q)^-1/2 Time:  CPU 0.51 s  wall 0.51 s

 In RI-MP2 calculation: 
 # of frozen core orbitals: 11

 Components of the RIMP2 correlation energy:
        aaaa    correlation energy =        -0.1455488048 a.u.
        abab    correlation energy =        -0.8866530729 a.u.
        bbbb    correlation energy =        -0.1455488048 a.u.
        non-Brillouin singles      =        -0.0000000000 a.u.
        total same-spin energy     =        -0.2910976097 a.u.
        total opposite-spin energy =        -0.8866530729 a.u.

 Total  RIMP2   correlation energy =        -1.1777506825 a.u.
        RIMP2         total energy =      -630.5982786461 a.u.

 RI-MP2 Energy Time:  CPU 12.61 s  wall 12.63 s
 
 --------------------------------------------------------------
 
                    Orbital Energies (a.u.)
 --------------------------------------------------------------
 
 Alpha MOs
 -- Occupied --
-91.9802 -11.2755 -11.2574 -11.2471 -11.2291 -11.2268 -11.2163  -8.9800
 -6.6609  -6.6604  -6.6598  -1.1608  -1.0551  -0.9955  -0.9461  -0.8818
 -0.7476  -0.7187  -0.6479  -0.5912  -0.5755  -0.5671  -0.5526  -0.5474
 -0.5092  -0.4856  -0.4650  -0.4458  -0.3385  -0.3022
 -- Virtual --
  0.1040   0.1420   0.1498   0.1744   0.1883   0.1922   0.1960   0.2298
  0.2388   0.2447   0.2464   0.2783   0.2882   0.3169   0.3406   0.3498
  0.3762   0.3982   0.4055   0.4135   0.4399   0.4687   0.4729   0.4828
  0.4919   0.5023   0.5271   0.5319   0.5368   0.5627   0.5842   0.5960
  0.6015   0.6052   0.6149   0.6172   0.6324   0.6406   0.6425   0.6498
  0.6603   0.6628   0.6910   0.7054   0.7344   0.7412   0.7663   0.7801
  0.7985   0.8190   0.8423   0.8555   0.8709   0.8976   0.9063   0.9301
  0.9610   0.9618   0.9819   1.0071   1.0404   1.0462   1.0637   1.0771
  1.0786   1.0856   1.1134   1.1357   1.1583   1.1711   1.1948   1.2140
  1.2205   1.2423   1.2526   1.2568   1.2692   1.3027   1.3054   1.3209
  1.3582   1.3828   1.3927   1.4095   1.4326   1.4399   1.4586   1.4797
  1.4926   1.5090   1.5301   1.5431   1.5498   1.5641   1.5736   1.5850
  1.6226   1.6256   1.6381   1.6681   1.6884   1.6965   1.7104   1.7480
  1.7621   1.7795   1.8214   1.8342   1.8911   1.8988   1.9180   1.9637
  1.9915   2.0477   2.0997   2.1303   2.1848   2.1965   2.2170   2.2360
  2.2589   2.2967   2.3582   2.4149   2.4551   2.5046   2.5309   2.5619
  2.5726   2.6098   2.6186   2.6561   2.6755   2.6807   2.7156   2.7346
  2.7515   2.7590   2.7909   2.8004   2.8217   2.8424   2.8497   2.8772
  2.9119   2.9233   2.9432   2.9675   2.9937   3.0098   3.0502   3.0788
  3.0912   3.1141   3.1270   3.1417   3.1455   3.1614   3.1779   3.1937
  3.2249   3.2442   3.2540   3.2679   3.2888   3.3027   3.3045   3.3249
  3.3401   3.3560   3.3750   3.3875   3.3937   3.4155   3.4254   3.4353
  3.4510   3.4632   3.4893   3.5027   3.5065   3.5136   3.5268   3.5654
  3.5902   3.5959   3.6113   3.6152   3.6305   3.6334   3.6573   3.6829
  3.7033   3.7156   3.7252   3.7617   3.7655   3.7812   3.7848   3.8085
  3.8157   3.8351   3.8719   3.8856   3.9174   3.9188   3.9250   3.9539
  3.9704   3.9731   4.0016   4.0240   4.0346   4.0574   4.0957   4.1020
  4.1404   4.1477   4.1641   4.1709   4.1908   4.2108   4.2237   4.2479
  4.2829   4.2858   4.3085   4.3382   4.3441   4.3538   4.3904   4.4027
  4.4073   4.4355   4.4377   4.4531   4.4743   4.4809   4.5398   4.5492
  4.5950   4.6217   4.6443   4.6581   4.7172   4.7483   4.7587   4.7892
  4.7922   4.8210   4.8585   4.9050   4.9256   5.0029   5.0911   5.0986
  5.1296   5.1341   5.1651   5.1979   5.2491   5.2818   5.2971   5.3091
  5.3641   5.4029   5.4132   5.4421   5.4643   5.4942   5.5490   5.5623
  5.5959   5.6219   5.6276   5.6986   5.7408   5.8257   5.8285   5.8721
  5.9229   5.9629   6.0662   6.1318   6.2270   6.2514   6.3066   6.3870
  6.4210   6.5066   9.1916  11.4004  12.9265  13.9201  14.1836  14.5044
 --------------------------------------------------------------
 
          Ground-State Mulliken Net Atomic Charges

     Atom                 Charge (a.u.)
  ----------------------------------------
      1 C                     0.050551
      2 C                    -0.261094
      3 C                     0.036585
      4 H                     0.180308
      5 C                    -0.257855
      6 S                    -0.002126
      7 C                    -0.273370
      8 H                     0.101794
      9 H                     0.106856
     10 H                     0.106959
     11 C                    -0.367786
     12 H                     0.112833
     13 H                     0.138995
     14 H                     0.132463
     15 H                     0.194887
  ----------------------------------------
  Sum of atomic charges =     0.000000

 -----------------------------------------------------------------
                    Cartesian Multipole Moments
 -----------------------------------------------------------------
    Charge (ESU x 10^10)
                -0.0000
    Dipole Moment (Debye)
         X      -0.1046      Y      -0.0097      Z       0.8885
       Tot       0.8947
    Quadrupole Moments (Debye-Ang)
        XX     -53.6879     XY       1.1913     YY     -42.2140
        XZ      -0.1750     YZ       1.4706     ZZ     -48.8025
    Octopole Moments (Debye-Ang^2)
       XXX      -9.4119    XXY     -32.3684    XYY      -1.6270
       YYY     -78.4067    XXZ      -1.5404    XYZ       0.4966
       YYZ      -7.5599    XZZ      -2.4858    YZZ     -23.4000
       ZZZ       2.1463
    Hexadecapole Moments (Debye-Ang^3)
      XXXX     -83.2015   XXXY     -29.1628   XXYY    -157.1611
      XYYY     -25.1825   YYYY    -809.7216   XXXZ      -8.3198
      XXYZ     -31.6041   XYYZ      -6.2153   YYYZ    -100.6275
      XXZZ    -102.2444   XYZZ      -8.2172   YYZZ    -216.7083
      XZZZ      -8.4333   YZZZ    -104.3845   ZZZZ    -481.8104
 -----------------------------------------------------------------
 Total job time:  158.31s(wall), 156.98s(cpu) 
 Sun Jul 10 10:06:26 2022

        *************************************************************
        *                                                           *
        *  Thank you very much for using Q-Chem.  Have a nice day.  *
        *                                                           *
        *************************************************************


remove work dirs ./qchem2177673.0 -- ./qchem2177673.-1
rm -rf ./qchem2177673
