You are running Q-Chem version: 5.4.0

#
# job setting
#
local host:  exp-2-29
current dir: /expanse/lustre/scratch/theleonzhang/temp_project/Hydrogenated_Impropers_Test
input file:  Methylthiophene_Phi_40_Theta_350_Methylthiophene_Hydrogenated_Improper_Alternate.qcin
output file: 
nprocs     : 0
nthreads   : 1
#
# qchem installation setting
#
QC:          /cm/shared/apps/spack/cpu/opt/spack/linux-centos8-zen2/gcc-10.2.0/qchem-5.4-akfmr7b3t57bfs6qan3padb2wnb2i7cl
QCAUX:       /cm/shared/apps/spack/cpu/opt/spack/linux-centos8-zen2/gcc-10.2.0/qchem-5.4-akfmr7b3t57bfs6qan3padb2wnb2i7cl/qcaux
QCPROG:      /cm/shared/apps/spack/cpu/opt/spack/linux-centos8-zen2/gcc-10.2.0/qchem-5.4-akfmr7b3t57bfs6qan3padb2wnb2i7cl/exe/qcprog.exe_s
QCPROG_S:    /cm/shared/apps/spack/cpu/opt/spack/linux-centos8-zen2/gcc-10.2.0/qchem-5.4-akfmr7b3t57bfs6qan3padb2wnb2i7cl/exe/qcprog.exe_s
PARALLEL:    -DSERIAL
QCMPI:       mpich
#
# qchem directory setting
#
qcrun:       qchem609473
QCSCRATCH:   .
QCLOCALSCR:  
QCTMPDIR:    .
QCFILEPREF:  ./qchem609473
QCSAVEDIR:   
workdirs:    ./qchem609473
workdir0:    ./qchem609473
partmpdirs =  
#
# parallel setting
#
QCRSH:           ssh
QCMPI:           mpich
QCMPIRUN:        /cm/shared/apps/spack/cpu/opt/spack/linux-centos8-zen2/gcc-10.2.0/qchem-5.4-akfmr7b3t57bfs6qan3padb2wnb2i7cl/bin/mpi/mpirun_qchem
QCMACHINEFILE:   ./qchem609473/hostfile

#
# env setting
#
exported envs:   QC QCAUX QCSCRATCH QCRUNNAME QCFILEPREF QCPROG QCPROG_S GUIFILE

Running Job 1 of 1 Methylthiophene_Phi_40_Theta_350_Methylthiophene_Hydrogenated_Improper_Alternate.qcin
qchem Methylthiophene_Phi_40_Theta_350_Methylthiophene_Hydrogenated_Improper_Alternate.qcin_609473.0 ./qchem609473/ 0
/cm/shared/apps/spack/cpu/opt/spack/linux-centos8-zen2/gcc-10.2.0/qchem-5.4-akfmr7b3t57bfs6qan3padb2wnb2i7cl/exe/qcprog.exe_s Methylthiophene_Phi_40_Theta_350_Methylthiophene_Hydrogenated_Improper_Alternate.qcin_609473.0 ./qchem609473/
                  Welcome to Q-Chem
     A Quantum Leap Into The Future Of Chemistry


 Q-Chem 5.4, Q-Chem, Inc., Pleasanton, CA (2021)

 License issued to: University of California, San Diego (site)

 E. Epifanovsky,  A. T. B. Gilbert,  Xintian Feng,  Joonho Lee,  Yuezhi Mao,  
 N. Mardirossian,  P. Pokhilko,  A. White,  M. Wormit,  M. P. Coons,  
 A. L. Dempwolff,  Zhengting Gan,  D. Hait,  P. R. Horn,  L. D. Jacobson,  
 I. Kaliman,  J. Kussmann,  A. W. Lange,  Ka Un Lao,  D. S. Levine,  Jie Liu,  
 S. C. McKenzie,  A. F. Morrison,  K. Nanda,  F. Plasser,  D. R. Rehn,  
 M. L. Vidal,  Zhi-Qiang You,  Ying Zhu,  B. Alam,  B. Albrecht,  
 A. Aldossary,  E. Alguire,  J. H. Andersen,  D. Barton,  K. Begam,  A. Behn,  
 Y. A. Bernard,  E. J. Berquist,  H. Burton,  A. Carreras,  K. Carter-Fenk,  
 R. Chakraborty,  A. D. Chien,  K. D. Closser,  V. Cofer-Shabica,  
 S. Dasgupta,  Jia Deng,  M. de Wergifosse,  M. Diedenhofen,  Hainam Do,  
 S. Ehlert,  Po-Tung Fang,  S. Fatehi,  Qingguo Feng,  J. Gayvert,  
 Qinghui Ge,  G. Gidofalvi,  M. Goldey,  J. Gomes,  C. Gonzalez-Espinoza,  
 S. Gulania,  A. Gunina,  M. W. D. Hanson-Heine,  P. H. P. Harbach,  
 A. W. Hauser,  M. F. Herbst,  M. Hernandez Vera,  M. Hodecker,  
 Z. C. Holden,  S. Houck,  Xunkun Huang,  Kerwin Hui,  B. C. Huynh,  
 M. Ivanov,  Hyunjun Ji,  Hanjie Jiang,  B. Kaduk,  S. Kaehler,  
 K. Khistyaev,  Jaehoon Kim,  P. Klunzinger,  Z. Koczor-Benda,  
 Joong Hoon Koh,  D. Kosenkov,  L. Koulias,  T. Kowalczyk,  C. M. Krauter,  
 K. Kue,  A. Kunitsa,  T. Kus,  A. Landau,  K. V. Lawler,  D. Lefrancois,  
 S. Lehtola,  Rain Li,  Yi-Pei Li,  Jiashu Liang,  M. Liebenthal,  
 Hung-Hsuan Lin,  You-Sheng Lin,  Fenglai Liu,  Kuan-Yu Liu,  
 M. Loipersberger,  A. Luenser,  A. Manjanath,  P. Manohar,  E. Mansoor,  
 S. F. Manzer,  Shan-Ping Mao,  A. V. Marenich,  T. Markovich,  S. Mason,  
 S. A. Maurer,  P. F. McLaughlin,  M. F. S. J. Menger,  J.-M. Mewes,  
 S. A. Mewes,  P. Morgante,  J. W. Mullinax,  T. S. Nguyen-Beck,  
 K. J. Oosterbaan,  G. Paran,  Alexander C. Paul,  Suranjan K. Paul,  
 F. Pavosevic,  Zheng Pei,  S. Prager,  E. I. Proynov,  E. Ramos,  B. Rana,  
 A. E. Rask,  A. Rettig,  R. M. Richard,  F. Rob,  E. Rossomme,  T. Scheele,  
 M. Scheurer,  M. Schneider,  N. Sergueev,  S. M. Sharada,  W. Skomorowski,  
 D. W. Small,  C. J. Stein,  Yu-Chuan Su,  E. J. Sundstrom,  Zhen Tao,  
 J. Thirman,  T. Tsuchimochi,  N. M. Tubman,  S. P. Veccham,  O. Vydrov,  
 J. Wenzel,  J. Witte,  A. Yamada,  Kun Yao,  S. Yeganeh,  S. R. Yost,  
 A. Zech,  Igor Ying Zhang,  Xing Zhang,  Yu Zhang,  D. Zuev,  
 A. Aspuru-Guzik,  A. T. Bell,  N. A. Besley,  K. B. Bravaya,  B. R. Brooks,  
 D. Casanova,  Jeng-Da Chai,  S. Coriani,  C. J. Cramer,  
 A. E. DePrince, III,  R. A. DiStasio Jr.,  A. Dreuw,  B. D. Dunietz,  
 T. R. Furlani,  W. A. Goddard III,  S. Grimme,  S. Hammes-Schiffer,  
 T. Head-Gordon,  W. J. Hehre,  Chao-Ping Hsu,  T.-C. Jagau,  Yousung Jung,  
 A. Klamt,  Jing Kong,  D. S. Lambrecht,  WanZhen Liang,  N. J. Mayhall,  
 C. W. McCurdy,  J. B. Neaton,  C. Ochsenfeld,  J. A. Parkhill,  R. Peverati,  
 V. A. Rassolov,  Yihan Shao,  L. V. Slipchenko,  T. Stauch,  R. P. Steele,  
 J. E. Subotnik,  A. J. W. Thom,  A. Tkatchenko,  D. G. Truhlar,  
 T. Van Voorhis,  T. A. Wesolowski,  K. B. Whaley,  H. L. Woodcock III,  
 P. M. Zimmerman,  S. Faraji,  P. M. W. Gill,  M. Head-Gordon,  
 J. M. Herbert,  A. I. Krylov

 Contributors to earlier versions of Q-Chem not listed above: 
 R. D. Adamson,  B. Austin,  R. Baer,  J. Baker,  G. J. O. Beran,  
 K. Brandhorst,  S. T. Brown,  E. F. C. Byrd,  A. K. Chakraborty,  
 G. K. L. Chan,  Chun-Min Chang,  Yunqing Chen,  C.-L. Cheng,  
 Siu Hung Chien,  D. M. Chipman,  D. L. Crittenden,  H. Dachsel,  
 R. J. Doerksen,  A. D. Dutoi,  R. G. Edgar,  J. Fosso-Tande,  
 L. Fusti-Molnar,  D. Ghosh,  A. Ghysels,  A. Golubeva-Zadorozhnaya,  
 J. Gonthier,  M. S. Gordon,  S. R. Gwaltney,  G. Hawkins,  J. E. Herr,  
 A. Heyden,  S. Hirata,  E. G. Hohenstein,  G. Kedziora,  F. J. Keil,  
 C. Kelley,  Jihan Kim,  R. A. King,  R. Z. Khaliullin,  P. P. Korambath,  
 W. Kurlancheek,  A. Laurent,  A. M. Lee,  M. S. Lee,  S. V. Levchenko,  
 Ching Yeh Lin,  D. Liotard,  E. Livshits,  R. C. Lochan,  I. Lotan,  
 L. A. Martinez-Martinez,  P. E. Maslen,  N. Nair,  D. P. O'Neill,  
 D. Neuhauser,  E. Neuscamman,  C. M. Oana,  R. Olivares-Amaya,  R. Olson,  
 T. M. Perrine,  B. Peters,  P. A. Pieniazek,  A. Prociuk,  Y. M. Rhee,  
 J. Ritchie,  M. A. Rohrdanz,  E. Rosta,  N. J. Russ,  H. F. Schaefer III,  
 M. W. Schmidt,  N. E. Schultz,  S. Sharma,  N. Shenvi,  C. D. Sherrill,  
 A. C. Simmonett,  A. Sodt,  T. Stein,  D. Stuck,  K. S. Thanthiriwatte,  
 V. Vanovschi,  L. Vogt,  Tao Wang,  A. Warshel,  M. A. Watson,  
 C. F. Williams,  Q. Wu,  X. Xu,  Jun Yang,  W. Zhang,  Yan Zhao

 Please cite Q-Chem as follows:
 Y. Shao et al., Mol. Phys. 113, 184-215 (2015)
 DOI: 10.1080/00268976.2014.952696

 Q-Chem 5.4.0 for Intel X86 EM64T Linux

 Parts of Q-Chem use Armadillo 9.800.1 (Horizon Scraper).
 http://arma.sourceforge.net/

 Q-Chem begins on Sun Jul 10 11:01:36 2022  

 Host: 
0

     Scratch files written to ./qchem609473//
 May1621 |scratch|qcdevops|jenkins|workspace|build_RNUM    
 Processing $rem in /cm/shared/apps/spack/cpu/opt/spack/linux-centos8-zen2/gcc-10.2.0/qchem-5.4-akfmr7b3t57bfs6qan3padb2wnb2i7cl/config/preferences:
 Processing $rem in /home/theleonzhang/.qchemrc:
 Symmetry turned off for PCM/SM12/SMD calculation
 Core orbitals will be frozen

 Checking the input file for inconsistencies... 	...done.

--------------------------------------------------------------
User input:
--------------------------------------------------------------
$molecule
0 1
C	-0.440919	-0.417594	0.015308
C	0.114181	0.243906	1.114708
C	1.003781	1.304106	0.792008
H	-0.122819	-0.038594	2.151408
C	1.145681	1.473106	-0.597192
S	0.164881	0.304306	-1.471492
C	1.702981	2.137306	1.829908
H	1.429381	1.811306	2.852008
H	1.439981	3.212106	1.741508
H	2.807181	2.064906	1.741508
C	-0.440919	-1.858294	0.015308
H	0.622681	-1.858494	-0.172092
H	-0.583119	-2.562094	-0.791492
H	-0.276419	-2.377194	0.948008
H	1.755781	2.200206	-1.146292
$end

$rem
JOBTYPE		SP
EXCHANGE	HF
CORRELATION	pRIMP2
BASIS		cc-pvtz
METHOD		rimp2
AUX_BASIS	rimp2-cc-pvtz
SOLVENT_METHOD	PCM
PURECART	11111
SYMMETRY	false
MEM_TOTAL	110000
SCF_CONVERGENCE = 6
THRESH=10
$end



$solvent
dielectric 4.90
$end
--------------------------------------------------------------
 ----------------------------------------------------------------
             Standard Nuclear Orientation (Angstroms)
    I     Atom           X                Y                Z
 ----------------------------------------------------------------
    1      C      -0.4409190000    -0.4175940000     0.0153080000
    2      C       0.1141810000     0.2439060000     1.1147080000
    3      C       1.0037810000     1.3041060000     0.7920080000
    4      H      -0.1228190000    -0.0385940000     2.1514080000
    5      C       1.1456810000     1.4731060000    -0.5971920000
    6      S       0.1648810000     0.3043060000    -1.4714920000
    7      C       1.7029810000     2.1373060000     1.8299080000
    8      H       1.4293810000     1.8113060000     2.8520080000
    9      H       1.4399810000     3.2121060000     1.7415080000
   10      H       2.8071810000     2.0649060000     1.7415080000
   11      C      -0.4409190000    -1.8582940000     0.0153080000
   12      H       0.6226810000    -1.8584940000    -0.1720920000
   13      H      -0.5831190000    -2.5620940000    -0.7914920000
   14      H      -0.2764190000    -2.3771940000     0.9480080000
   15      H       1.7557810000     2.2002060000    -1.1462920000
 ----------------------------------------------------------------
 Nuclear Repulsion Energy =         347.99269224 hartrees
 There are       30 alpha and       30 beta electrons

 Q-Chem warning in module forms1/BasisType.C, line 2236:

 You are not using the predefined 5D/6D in this basis set.

 Requested basis set is cc-pVTZ
 There are 120 shells and 326 basis functions

 Total QAlloc Memory Limit 110000 MB
 Mega-Array Size       188 MB
 MEM_STATIC part       192 MB
 Discretize the solute cavity surface with Lebedev spheres
	Using 110 Lebedev grid points for each H atom
	Using 194 Lebedev grid points for other atoms
	Atomic van der Waals radii will be scaled by 1.20
 Remove points where switching function is < 1.0e-08
 Keep 1050 surface tesserae and discard 1188 interior tesserae
 Molecular Surface Area = 157.194 Angst**2

                       Distance Matrix (Angstroms)
             C (  1)   C (  2)   C (  3)   H (  4)   C (  5)   S (  6)
   C (  2)  1.397998
   C (  3)  2.377955  1.421108
   H (  4)  2.192659  1.100328  2.218116
   C (  5)  2.543069  2.346386  1.406618  3.383656
   S (  6)  1.760315  2.587402  2.612812  3.650446  1.758540
   C (  7)  3.796919  2.573084  1.503442  2.858575  2.577316  4.077362
   H (  8)  4.063605  2.684158  2.163790  2.514417  3.477333  4.750017
   H (  9)  4.437598  3.310715  2.175382  3.630071  2.929207  4.517140
   H ( 10)  4.437649  3.310766  2.175458  3.630101  2.929220  4.517171
   C ( 11)  1.440700  2.436403  3.562470  2.824078  3.740412  2.693401
   H ( 12)  1.800710  2.516846  3.328177  3.044086  3.399088  2.564318
   H ( 13)  2.295654  3.463158  4.469142  3.903920  4.394240  3.039433
   H ( 14)  2.176470  2.655282  3.900669  2.634543  4.385752  3.638567
   H ( 15)  3.609388  3.410877  2.263958  4.406380  1.096543  2.496228
             C (  7)   H (  8)   H (  9)   H ( 10)   C ( 11)   H ( 12)
   H (  8)  1.107168
   H (  9)  1.110035  1.787614
   H ( 10)  1.110096  1.787696  1.784742
   C ( 11)  4.884045  5.001085  5.676840  5.377864
   H ( 12)  4.597985  4.823212  5.480951  4.881288  1.079983
   H ( 13)  5.846567  6.037539  6.621964  6.270514  1.080038  1.527306
   H ( 14)  5.007642  4.906985  5.900504  5.465390  1.079929  1.527107
   H ( 15)  2.977333  4.030407  3.076209  3.076221  4.758805  4.325046
             H ( 13)   H ( 14)
   H ( 14)  1.775982
   H ( 15)  5.317503  5.428492
 
 Requested basis set is rimp2-cc-pVTZ
 There are 250 shells and 848 basis functions
 A cutoff of  1.0D-10 yielded   6303 shell pairs
 There are     46315 function pairs (     59574 Cartesian)
 Smallest overlap matrix eigenvalue = 1.29E-04

 Scale SEOQF with 1.000000e-01/1.000000e-01/1.000000e-01

 Standard Electronic Orientation quadrupole field applied
 Nucleus-field energy     =     0.0000000002 hartrees
 Guess from superposition of atomic densities
 Warning:  Energy on first SCF cycle will be non-variational
 SAD guess density has 60.000000 electrons

 -----------------------------------------------------------------------
  General SCF calculation program by
  Eric Jon Sundstrom, Paul Horn, Yuezhi Mao, Dmitri Zuev, Alec White,
  David Stuck, Shaama M.S., Shane Yost, Joonho Lee, David Small,
  Daniel Levine, Susi Lehtola, Hugh Burton, Evgeny Epifanovsky,
  Bang C. Huynh
 -----------------------------------------------------------------------
 Hartree-Fock
 A restricted SCF calculation will be
 performed using DIIS
 SCF converges when DIIS error is below 1.0e-06
 ---------------------------------------
  Cycle       Energy         DIIS error
 ---------------------------------------
    1    -632.1533348287      2.94e-02  
    2    -629.3149545395      1.93e-03  
    3    -629.3853377433      6.67e-04  
    4    -629.3927127570      3.39e-04  
    5    -629.3947442141      6.38e-05  
    6    -629.3948811176      2.62e-05  
    7    -629.3949160547      1.20e-05  
    8    -629.3949261237      5.24e-06  
    9    -629.3949278708      1.88e-06  
   10    -629.3949281013      6.08e-07  Convergence criterion met
 ---------------------------------------
 SCF time:   CPU 148.29s  wall 150.00s 

************** Final PCM Free Energy Summary **************
 G_electrostatic  =      -0.00537227 hartree =      -3.37114956 kcal/mol
 G_cavitation     =       0.00000000 hartree =       0.00000000 kcal/mol
 G_dispersion     =       0.00000000 hartree =       0.00000000 kcal/mol
 G_repulsion      =       0.00000000 hartree =       0.00000000 kcal/mol
 --------------------------------------------------
 Non-electrostatic Free Energy =       0.00000000 hartree =       0.00000000 kcal/mol
 Total                         =      -0.00537227 hartree =      -3.37114956 kcal/mol
 --------------------------------------------------
 SCF Energy (H0 + V/2)                       =    -629.39492810 
 Solute Internal Energy (H0)                 =    -629.38955583 
 Total Free Energy (H0 + V/2 + non-elec)     =    -629.39492810 hartree
                                             = -394951.27838295 kcal/mol
***********************************************************

 SCF   energy in the final basis set =     -629.3949281013
 Total energy in the final basis set =     -629.3949281013


 --------------------------------------------------------------
  Generalized many-body perturbation theory program
  by Joonho Lee, Fazle Rob, Xintian Feng, Evgeny Epifanovsky

 No regularization used 
 (reg. param. = 0.0000e+00)
  (P|Q)^-1/2 Time:  CPU 0.49 s  wall 0.49 s

 In RI-MP2 calculation: 
 # of frozen core orbitals: 11

 Components of the RIMP2 correlation energy:
        aaaa    correlation energy =        -0.1463010835 a.u.
        abab    correlation energy =        -0.8898379263 a.u.
        bbbb    correlation energy =        -0.1463010835 a.u.
        non-Brillouin singles      =        -0.0000000000 a.u.
        total same-spin energy     =        -0.2926021670 a.u.
        total opposite-spin energy =        -0.8898379263 a.u.

 Total  RIMP2   correlation energy =        -1.1824400933 a.u.
        RIMP2         total energy =      -630.5773681946 a.u.

 RI-MP2 Energy Time:  CPU 11.40 s  wall 11.44 s
 
 --------------------------------------------------------------
 
                    Orbital Energies (a.u.)
 --------------------------------------------------------------
 
 Alpha MOs
 -- Occupied --
-91.9746 -11.2761 -11.2601 -11.2488 -11.2314 -11.2277 -11.2192  -8.9753
 -6.6562  -6.6556  -6.6550  -1.1677  -1.0574  -0.9965  -0.9401  -0.8813
 -0.7472  -0.7229  -0.6453  -0.5878  -0.5832  -0.5671  -0.5516  -0.5464
 -0.5082  -0.4948  -0.4606  -0.4504  -0.3398  -0.2880
 -- Virtual --
  0.0874   0.1442   0.1559   0.1758   0.1849   0.1935   0.2115   0.2157
  0.2217   0.2449   0.2511   0.2583   0.2963   0.3242   0.3391   0.3476
  0.3747   0.3961   0.4006   0.4213   0.4410   0.4540   0.4664   0.4683
  0.4882   0.4902   0.5184   0.5286   0.5458   0.5559   0.5710   0.5808
  0.5853   0.6049   0.6062   0.6193   0.6322   0.6364   0.6430   0.6473
  0.6596   0.6697   0.6823   0.6977   0.7042   0.7484   0.7636   0.7795
  0.8037   0.8131   0.8338   0.8549   0.8616   0.8822   0.8893   0.9209
  0.9542   0.9680   1.0107   1.0346   1.0430   1.0546   1.0758   1.0781
  1.0832   1.1118   1.1272   1.1498   1.1577   1.1735   1.1939   1.2001
  1.2291   1.2438   1.2492   1.2589   1.2729   1.3066   1.3200   1.3386
  1.3459   1.3785   1.3838   1.4081   1.4288   1.4330   1.4568   1.4687
  1.4793   1.5035   1.5096   1.5216   1.5423   1.5481   1.5615   1.5744
  1.5879   1.6231   1.6444   1.6678   1.6917   1.7004   1.7240   1.7506
  1.7706   1.7763   1.8037   1.8200   1.8931   1.9323   1.9388   1.9758
  2.0027   2.0375   2.0824   2.1408   2.1688   2.1869   2.2184   2.2320
  2.2744   2.2830   2.3465   2.4054   2.4240   2.4753   2.4986   2.5434
  2.5652   2.5919   2.6190   2.6523   2.6779   2.6988   2.7071   2.7312
  2.7436   2.7697   2.7903   2.7917   2.8301   2.8452   2.8700   2.8958
  2.9181   2.9645   2.9719   2.9910   3.0281   3.0369   3.0417   3.0896
  3.1052   3.1113   3.1182   3.1261   3.1355   3.1582   3.1728   3.1906
  3.2098   3.2308   3.2474   3.2591   3.2856   3.3032   3.3154   3.3215
  3.3383   3.3635   3.3664   3.3833   3.3943   3.4033   3.4166   3.4351
  3.4513   3.4672   3.5023   3.5051   3.5174   3.5243   3.5499   3.5606
  3.5649   3.5865   3.6110   3.6278   3.6295   3.6396   3.6729   3.6976
  3.7014   3.7161   3.7287   3.7383   3.7541   3.7621   3.7961   3.8101
  3.8135   3.8447   3.8522   3.8793   3.9112   3.9275   3.9330   3.9553
  4.0036   4.0187   4.0385   4.0411   4.0577   4.0680   4.0919   4.1196
  4.1268   4.1615   4.1740   4.2030   4.2214   4.2308   4.2484   4.2715
  4.2952   4.3000   4.3192   4.3263   4.3599   4.3890   4.3972   4.4016
  4.4067   4.4480   4.4604   4.4686   4.4943   4.5278   4.5426   4.5774
  4.5893   4.6412   4.6488   4.6839   4.7133   4.7350   4.7562   4.7947
  4.8161   4.8439   4.8601   4.8726   4.8962   4.9309   5.0544   5.0877
  5.1112   5.1206   5.1636   5.1999   5.2139   5.2566   5.2898   5.3350
  5.3684   5.3979   5.4219   5.4524   5.4640   5.5165   5.5464   5.5630
  5.5950   5.6017   5.6239   5.6728   5.6956   5.8078   5.8394   5.8621
  5.9180   5.9802   6.0299   6.1604   6.2287   6.2352   6.2737   6.3585
  6.4283   6.4732   9.2257  11.5883  12.8388  13.6573  14.1813  14.4288
 --------------------------------------------------------------
 
          Ground-State Mulliken Net Atomic Charges

     Atom                 Charge (a.u.)
  ----------------------------------------
      1 C                     0.027162
      2 C                    -0.283539
      3 C                     0.047100
      4 H                     0.177383
      5 C                    -0.256098
      6 S                    -0.003117
      7 C                    -0.269289
      8 H                     0.101823
      9 H                     0.107928
     10 H                     0.106231
     11 C                    -0.368203
     12 H                     0.141623
     13 H                     0.147931
     14 H                     0.129539
     15 H                     0.193527
  ----------------------------------------
  Sum of atomic charges =     0.000000

 -----------------------------------------------------------------
                    Cartesian Multipole Moments
 -----------------------------------------------------------------
    Charge (ESU x 10^10)
                -0.0000
    Dipole Moment (Debye)
         X       1.6810      Y      -0.4326      Z       1.4561
       Tot       2.2656
    Quadrupole Moments (Debye-Ang)
        XX     -51.5910     XY       3.4215     YY     -45.9831
        XZ       0.2499     YZ       0.4597     ZZ     -48.3987
    Octopole Moments (Debye-Ang^2)
       XXX     -65.2323    XXY     -14.2058    XYY     -13.3540
       YYY     -63.2313    XXZ      -3.2750    XYZ      -2.0651
       YYZ      -4.4166    XZZ     -19.8984    YZZ     -18.7075
       ZZZ       1.9354
    Hexadecapole Moments (Debye-Ang^3)
      XXXX    -306.7492   XXXY    -152.7055   XXYY    -146.5452
      XYYY    -149.0076   YYYY    -583.9291   XXXZ     -61.8917
      XXYZ     -27.1878   XYYZ     -23.1352   YYYZ     -73.1262
      XXZZ    -132.8109   XYZZ     -43.0175   YYZZ    -174.5745
      XZZZ     -65.6026   YZZZ     -77.2386   ZZZZ    -483.1309
 -----------------------------------------------------------------
 Total job time:  161.46s(wall), 160.05s(cpu) 
 Sun Jul 10 11:04:17 2022

        *************************************************************
        *                                                           *
        *  Thank you very much for using Q-Chem.  Have a nice day.  *
        *                                                           *
        *************************************************************


remove work dirs ./qchem609473.0 -- ./qchem609473.-1
rm -rf ./qchem609473
