You are running Q-Chem version: 5.4.0

#
# job setting
#
local host:  exp-1-46
current dir: /expanse/lustre/scratch/theleonzhang/temp_project/Hydrogenated_Impropers_Test
input file:  Methylthiophene_Phi_5_Theta_350_Methylthiophene_Hydrogenated_Improper.qcin
output file: 
nprocs     : 0
nthreads   : 1
#
# qchem installation setting
#
QC:          /cm/shared/apps/spack/cpu/opt/spack/linux-centos8-zen2/gcc-10.2.0/qchem-5.4-akfmr7b3t57bfs6qan3padb2wnb2i7cl
QCAUX:       /cm/shared/apps/spack/cpu/opt/spack/linux-centos8-zen2/gcc-10.2.0/qchem-5.4-akfmr7b3t57bfs6qan3padb2wnb2i7cl/qcaux
QCPROG:      /cm/shared/apps/spack/cpu/opt/spack/linux-centos8-zen2/gcc-10.2.0/qchem-5.4-akfmr7b3t57bfs6qan3padb2wnb2i7cl/exe/qcprog.exe_s
QCPROG_S:    /cm/shared/apps/spack/cpu/opt/spack/linux-centos8-zen2/gcc-10.2.0/qchem-5.4-akfmr7b3t57bfs6qan3padb2wnb2i7cl/exe/qcprog.exe_s
PARALLEL:    -DSERIAL
QCMPI:       mpich
#
# qchem directory setting
#
qcrun:       qchem14512
QCSCRATCH:   .
QCLOCALSCR:  
QCTMPDIR:    .
QCFILEPREF:  ./qchem14512
QCSAVEDIR:   
workdirs:    ./qchem14512
workdir0:    ./qchem14512
partmpdirs =  
#
# parallel setting
#
QCRSH:           ssh
QCMPI:           mpich
QCMPIRUN:        /cm/shared/apps/spack/cpu/opt/spack/linux-centos8-zen2/gcc-10.2.0/qchem-5.4-akfmr7b3t57bfs6qan3padb2wnb2i7cl/bin/mpi/mpirun_qchem
QCMACHINEFILE:   ./qchem14512/hostfile

#
# env setting
#
exported envs:   QC QCAUX QCSCRATCH QCRUNNAME QCFILEPREF QCPROG QCPROG_S GUIFILE

Running Job 1 of 1 Methylthiophene_Phi_5_Theta_350_Methylthiophene_Hydrogenated_Improper.qcin
qchem Methylthiophene_Phi_5_Theta_350_Methylthiophene_Hydrogenated_Improper.qcin_14512.0 ./qchem14512/ 0
/cm/shared/apps/spack/cpu/opt/spack/linux-centos8-zen2/gcc-10.2.0/qchem-5.4-akfmr7b3t57bfs6qan3padb2wnb2i7cl/exe/qcprog.exe_s Methylthiophene_Phi_5_Theta_350_Methylthiophene_Hydrogenated_Improper.qcin_14512.0 ./qchem14512/
                  Welcome to Q-Chem
     A Quantum Leap Into The Future Of Chemistry


 Q-Chem 5.4, Q-Chem, Inc., Pleasanton, CA (2021)

 License issued to: University of California, San Diego (site)

 E. Epifanovsky,  A. T. B. Gilbert,  Xintian Feng,  Joonho Lee,  Yuezhi Mao,  
 N. Mardirossian,  P. Pokhilko,  A. White,  M. Wormit,  M. P. Coons,  
 A. L. Dempwolff,  Zhengting Gan,  D. Hait,  P. R. Horn,  L. D. Jacobson,  
 I. Kaliman,  J. Kussmann,  A. W. Lange,  Ka Un Lao,  D. S. Levine,  Jie Liu,  
 S. C. McKenzie,  A. F. Morrison,  K. Nanda,  F. Plasser,  D. R. Rehn,  
 M. L. Vidal,  Zhi-Qiang You,  Ying Zhu,  B. Alam,  B. Albrecht,  
 A. Aldossary,  E. Alguire,  J. H. Andersen,  D. Barton,  K. Begam,  A. Behn,  
 Y. A. Bernard,  E. J. Berquist,  H. Burton,  A. Carreras,  K. Carter-Fenk,  
 R. Chakraborty,  A. D. Chien,  K. D. Closser,  V. Cofer-Shabica,  
 S. Dasgupta,  Jia Deng,  M. de Wergifosse,  M. Diedenhofen,  Hainam Do,  
 S. Ehlert,  Po-Tung Fang,  S. Fatehi,  Qingguo Feng,  J. Gayvert,  
 Qinghui Ge,  G. Gidofalvi,  M. Goldey,  J. Gomes,  C. Gonzalez-Espinoza,  
 S. Gulania,  A. Gunina,  M. W. D. Hanson-Heine,  P. H. P. Harbach,  
 A. W. Hauser,  M. F. Herbst,  M. Hernandez Vera,  M. Hodecker,  
 Z. C. Holden,  S. Houck,  Xunkun Huang,  Kerwin Hui,  B. C. Huynh,  
 M. Ivanov,  Hyunjun Ji,  Hanjie Jiang,  B. Kaduk,  S. Kaehler,  
 K. Khistyaev,  Jaehoon Kim,  P. Klunzinger,  Z. Koczor-Benda,  
 Joong Hoon Koh,  D. Kosenkov,  L. Koulias,  T. Kowalczyk,  C. M. Krauter,  
 K. Kue,  A. Kunitsa,  T. Kus,  A. Landau,  K. V. Lawler,  D. Lefrancois,  
 S. Lehtola,  Rain Li,  Yi-Pei Li,  Jiashu Liang,  M. Liebenthal,  
 Hung-Hsuan Lin,  You-Sheng Lin,  Fenglai Liu,  Kuan-Yu Liu,  
 M. Loipersberger,  A. Luenser,  A. Manjanath,  P. Manohar,  E. Mansoor,  
 S. F. Manzer,  Shan-Ping Mao,  A. V. Marenich,  T. Markovich,  S. Mason,  
 S. A. Maurer,  P. F. McLaughlin,  M. F. S. J. Menger,  J.-M. Mewes,  
 S. A. Mewes,  P. Morgante,  J. W. Mullinax,  T. S. Nguyen-Beck,  
 K. J. Oosterbaan,  G. Paran,  Alexander C. Paul,  Suranjan K. Paul,  
 F. Pavosevic,  Zheng Pei,  S. Prager,  E. I. Proynov,  E. Ramos,  B. Rana,  
 A. E. Rask,  A. Rettig,  R. M. Richard,  F. Rob,  E. Rossomme,  T. Scheele,  
 M. Scheurer,  M. Schneider,  N. Sergueev,  S. M. Sharada,  W. Skomorowski,  
 D. W. Small,  C. J. Stein,  Yu-Chuan Su,  E. J. Sundstrom,  Zhen Tao,  
 J. Thirman,  T. Tsuchimochi,  N. M. Tubman,  S. P. Veccham,  O. Vydrov,  
 J. Wenzel,  J. Witte,  A. Yamada,  Kun Yao,  S. Yeganeh,  S. R. Yost,  
 A. Zech,  Igor Ying Zhang,  Xing Zhang,  Yu Zhang,  D. Zuev,  
 A. Aspuru-Guzik,  A. T. Bell,  N. A. Besley,  K. B. Bravaya,  B. R. Brooks,  
 D. Casanova,  Jeng-Da Chai,  S. Coriani,  C. J. Cramer,  
 A. E. DePrince, III,  R. A. DiStasio Jr.,  A. Dreuw,  B. D. Dunietz,  
 T. R. Furlani,  W. A. Goddard III,  S. Grimme,  S. Hammes-Schiffer,  
 T. Head-Gordon,  W. J. Hehre,  Chao-Ping Hsu,  T.-C. Jagau,  Yousung Jung,  
 A. Klamt,  Jing Kong,  D. S. Lambrecht,  WanZhen Liang,  N. J. Mayhall,  
 C. W. McCurdy,  J. B. Neaton,  C. Ochsenfeld,  J. A. Parkhill,  R. Peverati,  
 V. A. Rassolov,  Yihan Shao,  L. V. Slipchenko,  T. Stauch,  R. P. Steele,  
 J. E. Subotnik,  A. J. W. Thom,  A. Tkatchenko,  D. G. Truhlar,  
 T. Van Voorhis,  T. A. Wesolowski,  K. B. Whaley,  H. L. Woodcock III,  
 P. M. Zimmerman,  S. Faraji,  P. M. W. Gill,  M. Head-Gordon,  
 J. M. Herbert,  A. I. Krylov

 Contributors to earlier versions of Q-Chem not listed above: 
 R. D. Adamson,  B. Austin,  R. Baer,  J. Baker,  G. J. O. Beran,  
 K. Brandhorst,  S. T. Brown,  E. F. C. Byrd,  A. K. Chakraborty,  
 G. K. L. Chan,  Chun-Min Chang,  Yunqing Chen,  C.-L. Cheng,  
 Siu Hung Chien,  D. M. Chipman,  D. L. Crittenden,  H. Dachsel,  
 R. J. Doerksen,  A. D. Dutoi,  R. G. Edgar,  J. Fosso-Tande,  
 L. Fusti-Molnar,  D. Ghosh,  A. Ghysels,  A. Golubeva-Zadorozhnaya,  
 J. Gonthier,  M. S. Gordon,  S. R. Gwaltney,  G. Hawkins,  J. E. Herr,  
 A. Heyden,  S. Hirata,  E. G. Hohenstein,  G. Kedziora,  F. J. Keil,  
 C. Kelley,  Jihan Kim,  R. A. King,  R. Z. Khaliullin,  P. P. Korambath,  
 W. Kurlancheek,  A. Laurent,  A. M. Lee,  M. S. Lee,  S. V. Levchenko,  
 Ching Yeh Lin,  D. Liotard,  E. Livshits,  R. C. Lochan,  I. Lotan,  
 L. A. Martinez-Martinez,  P. E. Maslen,  N. Nair,  D. P. O'Neill,  
 D. Neuhauser,  E. Neuscamman,  C. M. Oana,  R. Olivares-Amaya,  R. Olson,  
 T. M. Perrine,  B. Peters,  P. A. Pieniazek,  A. Prociuk,  Y. M. Rhee,  
 J. Ritchie,  M. A. Rohrdanz,  E. Rosta,  N. J. Russ,  H. F. Schaefer III,  
 M. W. Schmidt,  N. E. Schultz,  S. Sharma,  N. Shenvi,  C. D. Sherrill,  
 A. C. Simmonett,  A. Sodt,  T. Stein,  D. Stuck,  K. S. Thanthiriwatte,  
 V. Vanovschi,  L. Vogt,  Tao Wang,  A. Warshel,  M. A. Watson,  
 C. F. Williams,  Q. Wu,  X. Xu,  Jun Yang,  W. Zhang,  Yan Zhao

 Please cite Q-Chem as follows:
 Y. Shao et al., Mol. Phys. 113, 184-215 (2015)
 DOI: 10.1080/00268976.2014.952696

 Q-Chem 5.4.0 for Intel X86 EM64T Linux

 Parts of Q-Chem use Armadillo 9.800.1 (Horizon Scraper).
 http://arma.sourceforge.net/

 Q-Chem begins on Sun Jul 10 10:20:19 2022  

 Host: 
0

     Scratch files written to ./qchem14512//
 May1621 |scratch|qcdevops|jenkins|workspace|build_RNUM    
 Processing $rem in /cm/shared/apps/spack/cpu/opt/spack/linux-centos8-zen2/gcc-10.2.0/qchem-5.4-akfmr7b3t57bfs6qan3padb2wnb2i7cl/config/preferences:
 Processing $rem in /home/theleonzhang/.qchemrc:
 Symmetry turned off for PCM/SM12/SMD calculation
 Core orbitals will be frozen

 Checking the input file for inconsistencies... 	...done.

--------------------------------------------------------------
User input:
--------------------------------------------------------------
$molecule
0 1
C	-0.054467	-0.573729	0.013624
C	0.020833	0.286571	1.113024
C	0.141433	1.665271	0.790324
H	-0.011267	-0.080829	2.149724
C	0.160733	1.885071	-0.598876
S	0.027733	0.365071	-1.473176
C	0.236333	2.748871	1.828224
H	0.199233	2.324771	2.850324
H	-0.595667	3.478371	1.739824
H	1.182333	3.322871	1.739824
C	-0.054467	-2.014429	0.013624
H	-1.118067	-2.014129	0.201024
H	-0.196667	-2.718229	-0.793176
H	0.110033	-2.533329	0.946324
H	0.243433	2.830671	-1.147976
$end

$rem
JOBTYPE		SP
EXCHANGE	HF
CORRELATION	pRIMP2
BASIS		cc-pvtz
METHOD		rimp2
AUX_BASIS	rimp2-cc-pvtz
SOLVENT_METHOD	PCM
PURECART	11111
SYMMETRY	false
MEM_TOTAL	110000
SCF_CONVERGENCE = 6
THRESH=10
$end



$solvent
dielectric 4.90
$end
--------------------------------------------------------------
 ----------------------------------------------------------------
             Standard Nuclear Orientation (Angstroms)
    I     Atom           X                Y                Z
 ----------------------------------------------------------------
    1      C      -0.0544670000    -0.5737290000     0.0136240000
    2      C       0.0208330000     0.2865710000     1.1130240000
    3      C       0.1414330000     1.6652710000     0.7903240000
    4      H      -0.0112670000    -0.0808290000     2.1497240000
    5      C       0.1607330000     1.8850710000    -0.5988760000
    6      S       0.0277330000     0.3650710000    -1.4731760000
    7      C       0.2363330000     2.7488710000     1.8282240000
    8      H       0.1992330000     2.3247710000     2.8503240000
    9      H      -0.5956670000     3.4783710000     1.7398240000
   10      H       1.1823330000     3.3228710000     1.7398240000
   11      C      -0.0544670000    -2.0144290000     0.0136240000
   12      H      -1.1180670000    -2.0141290000     0.2010240000
   13      H      -0.1966670000    -2.7182290000    -0.7931760000
   14      H       0.1100330000    -2.5333290000     0.9463240000
   15      H       0.2434330000     2.8306710000    -1.1479760000
 ----------------------------------------------------------------
 Nuclear Repulsion Energy =         344.30418292 hartrees
 There are       30 alpha and       30 beta electrons

 Q-Chem warning in module forms1/BasisType.C, line 2236:

 You are not using the predefined 5D/6D in this basis set.

 Requested basis set is cc-pVTZ
 There are 120 shells and 326 basis functions

 Total QAlloc Memory Limit 110000 MB
 Mega-Array Size       188 MB
 MEM_STATIC part       192 MB
 Discretize the solute cavity surface with Lebedev spheres
	Using 110 Lebedev grid points for each H atom
	Using 194 Lebedev grid points for other atoms
	Atomic van der Waals radii will be scaled by 1.20
 Remove points where switching function is < 1.0e-08
 Keep 1070 surface tesserae and discard 1168 interior tesserae
 Molecular Surface Area = 159.225 Angst**2

                       Distance Matrix (Angstroms)
             C (  1)   C (  2)   C (  3)   H (  4)   C (  5)   S (  6)
   C (  2)  1.398022
   C (  3)  2.377974  1.421089
   H (  4)  2.192656  1.100345  2.218141
   C (  5)  2.543062  2.346354  1.406613  3.383659
   S (  6)  1.760306  2.587400  2.612830  3.650445  1.758548
   C (  7)  3.796974  2.573106  1.503473  2.858648  2.577340  4.077408
   H (  8)  4.063562  2.684082  2.163765  2.514371  3.477326  4.749999
   H (  9)  4.437587  3.310670  2.175362  3.630075  2.929209  4.517149
   H ( 10)  4.437672  3.310752  2.175468  3.630134  2.929241  4.517195
   C ( 11)  1.440700  2.551265  3.765877  2.881597  3.953172  2.807018
   H ( 12)  1.800310  2.724345  3.933395  2.959744  4.180781  3.126723
   H ( 13)  2.295654  3.565071  4.672992  3.956123  4.621240  3.165358
   H ( 14)  2.176470  2.826231  4.201614  2.734528  4.681076  3.776437
   H ( 15)  3.609432  3.410882  2.263972  4.406419  1.096590  2.496290
             C (  7)   H (  8)   H (  9)   H ( 10)   C ( 11)   H ( 12)
   H (  8)  1.107215
   H (  9)  1.110049  1.787699
   H ( 10)  1.110048  1.787708  1.784787
   C ( 11)  5.105523  5.190365  5.783037  5.744233
   H ( 12)  5.212327  5.251678  5.727859  6.011931  1.079983
   H ( 13)  6.078520  6.234074  6.706202  6.694223  1.080038  1.527471
   H ( 14)  5.356803  5.218650  6.104768  6.006209  1.079929  1.527505
   H ( 15)  2.977332  4.030421  3.076198  3.076229  4.991298  5.210141
             H ( 13)   H ( 14)
   H ( 14)  1.775982
   H ( 15)  5.577622  5.759894
 
 Requested basis set is rimp2-cc-pVTZ
 There are 250 shells and 848 basis functions
 A cutoff of  1.0D-10 yielded   6164 shell pairs
 There are     45136 function pairs (     58035 Cartesian)
 Smallest overlap matrix eigenvalue = 8.00E-05

 Scale SEOQF with 1.000000e+00/1.000000e-01/1.000000e-01

 Standard Electronic Orientation quadrupole field applied
 Nucleus-field energy     =     0.0000000036 hartrees
 Guess from superposition of atomic densities
 Warning:  Energy on first SCF cycle will be non-variational
 SAD guess density has 60.000000 electrons

 -----------------------------------------------------------------------
  General SCF calculation program by
  Eric Jon Sundstrom, Paul Horn, Yuezhi Mao, Dmitri Zuev, Alec White,
  David Stuck, Shaama M.S., Shane Yost, Joonho Lee, David Small,
  Daniel Levine, Susi Lehtola, Hugh Burton, Evgeny Epifanovsky,
  Bang C. Huynh
 -----------------------------------------------------------------------
 Hartree-Fock
 A restricted SCF calculation will be
 performed using DIIS
 SCF converges when DIIS error is below 1.0e-06
 ---------------------------------------
  Cycle       Energy         DIIS error
 ---------------------------------------
    1    -632.0948691320      2.91e-02  
    2    -629.3430185287      1.95e-03  
    3    -629.4133306382      7.04e-04  
    4    -629.4210260368      3.64e-04  
    5    -629.4233203254      6.18e-05  
    6    -629.4234515013      2.56e-05  
    7    -629.4234826680      1.10e-05  
    8    -629.4234912779      5.12e-06  
    9    -629.4234927238      1.68e-06  
   10    -629.4234929094      6.89e-07  Convergence criterion met
 ---------------------------------------
 SCF time:   CPU 144.78s  wall 145.00s 

************** Final PCM Free Energy Summary **************
 G_electrostatic  =      -0.00597209 hartree =      -3.74754019 kcal/mol
 G_cavitation     =       0.00000000 hartree =       0.00000000 kcal/mol
 G_dispersion     =       0.00000000 hartree =       0.00000000 kcal/mol
 G_repulsion      =       0.00000000 hartree =       0.00000000 kcal/mol
 --------------------------------------------------
 Non-electrostatic Free Energy =       0.00000000 hartree =       0.00000000 kcal/mol
 Total                         =      -0.00597209 hartree =      -3.74754019 kcal/mol
 --------------------------------------------------
 SCF Energy (H0 + V/2)                       =    -629.42349291 
 Solute Internal Energy (H0)                 =    -629.41752082 
 Total Free Energy (H0 + V/2 + non-elec)     =    -629.42349291 hartree
                                             = -394969.20307056 kcal/mol
***********************************************************

 SCF   energy in the final basis set =     -629.4234929094
 Total energy in the final basis set =     -629.4234929094


 --------------------------------------------------------------
  Generalized many-body perturbation theory program
  by Joonho Lee, Fazle Rob, Xintian Feng, Evgeny Epifanovsky

 No regularization used 
 (reg. param. = 0.0000e+00)
  (P|Q)^-1/2 Time:  CPU 0.56 s  wall 0.56 s

 In RI-MP2 calculation: 
 # of frozen core orbitals: 11

 Components of the RIMP2 correlation energy:
        aaaa    correlation energy =        -0.1452233133 a.u.
        abab    correlation energy =        -0.8852978659 a.u.
        bbbb    correlation energy =        -0.1452233133 a.u.
        non-Brillouin singles      =        -0.0000000000 a.u.
        total same-spin energy     =        -0.2904466266 a.u.
        total opposite-spin energy =        -0.8852978659 a.u.

 Total  RIMP2   correlation energy =        -1.1757444924 a.u.
        RIMP2         total energy =      -630.5992374019 a.u.

 RI-MP2 Energy Time:  CPU 14.78 s  wall 14.84 s
 
 --------------------------------------------------------------
 
                    Orbital Energies (a.u.)
 --------------------------------------------------------------
 
 Alpha MOs
 -- Occupied --
-91.9776 -11.2860 -11.2483 -11.2469 -11.2264 -11.2236 -11.2219  -8.9774
 -6.6584  -6.6578  -6.6572  -1.1600  -1.0561  -0.9978  -0.9414  -0.8830
 -0.7432  -0.7189  -0.6477  -0.5895  -0.5736  -0.5714  -0.5541  -0.5451
 -0.5083  -0.4933  -0.4642  -0.4556  -0.3380  -0.2883
 -- Virtual --
  0.1150   0.1452   0.1468   0.1746   0.1882   0.1901   0.2109   0.2186
  0.2274   0.2395   0.2473   0.2584   0.2957   0.3270   0.3442   0.3530
  0.3853   0.3906   0.4056   0.4213   0.4332   0.4570   0.4706   0.4944
  0.5047   0.5140   0.5167   0.5341   0.5421   0.5587   0.5768   0.5881
  0.6005   0.6037   0.6153   0.6307   0.6334   0.6385   0.6460   0.6487
  0.6577   0.6701   0.6861   0.7052   0.7134   0.7545   0.7822   0.7915
  0.8240   0.8369   0.8485   0.8568   0.8797   0.8827   0.9082   0.9343
  0.9539   0.9742   0.9988   1.0262   1.0426   1.0493   1.0540   1.0773
  1.0832   1.0871   1.0971   1.1189   1.1436   1.1672   1.1740   1.2086
  1.2378   1.2446   1.2551   1.2675   1.2787   1.2951   1.3016   1.3449
  1.3624   1.3900   1.3960   1.4067   1.4327   1.4398   1.4517   1.4827
  1.5017   1.5074   1.5212   1.5372   1.5507   1.5595   1.5744   1.5921
  1.6040   1.6296   1.6446   1.6806   1.6922   1.7034   1.7320   1.7474
  1.7789   1.7954   1.8019   1.8465   1.8951   1.9225   1.9471   1.9608
  2.0167   2.0495   2.0872   2.1407   2.1808   2.2002   2.2296   2.2572
  2.2799   2.3194   2.3268   2.4132   2.4678   2.4745   2.4870   2.5256
  2.5684   2.5916   2.6503   2.6731   2.6798   2.7082   2.7268   2.7298
  2.7434   2.7681   2.7772   2.7859   2.8177   2.8352   2.8535   2.8711
  2.9133   2.9294   2.9477   2.9704   3.0155   3.0178   3.0435   3.0586
  3.0954   3.1141   3.1184   3.1379   3.1562   3.1604   3.1795   3.1862
  3.2292   3.2344   3.2709   3.2758   3.3015   3.3077   3.3154   3.3311
  3.3349   3.3528   3.3846   3.3881   3.3990   3.4063   3.4278   3.4387
  3.4465   3.4613   3.4727   3.4864   3.5039   3.5172   3.5260   3.5573
  3.5879   3.5981   3.6112   3.6190   3.6297   3.6507   3.6717   3.6805
  3.6844   3.7072   3.7102   3.7309   3.7462   3.7752   3.7861   3.8035
  3.8111   3.8452   3.8727   3.8852   3.9158   3.9229   3.9342   3.9524
  3.9813   3.9890   4.0258   4.0272   4.0426   4.0502   4.1013   4.1069
  4.1323   4.1373   4.1755   4.2138   4.2254   4.2319   4.2410   4.2744
  4.2970   4.3066   4.3135   4.3240   4.3517   4.3783   4.3943   4.4038
  4.4265   4.4340   4.4370   4.4668   4.4788   4.5153   4.5383   4.5510
  4.6072   4.6083   4.6421   4.6895   4.6990   4.7447   4.7610   4.7862
  4.8098   4.8334   4.8809   4.8976   4.9095   4.9472   5.0919   5.1092
  5.1256   5.1315   5.1745   5.2039   5.2171   5.2661   5.2863   5.3310
  5.3762   5.4082   5.4184   5.4447   5.4680   5.5144   5.5517   5.5651
  5.5781   5.6139   5.6247   5.6478   5.7001   5.8077   5.8212   5.8796
  5.9395   5.9774   6.1122   6.2004   6.2272   6.2529   6.3225   6.4189
  6.4328   6.5831   9.2448  11.4521  12.9670  13.8104  14.1781  14.6774
 --------------------------------------------------------------
 
          Ground-State Mulliken Net Atomic Charges

     Atom                 Charge (a.u.)
  ----------------------------------------
      1 C                     0.072198
      2 C                    -0.312707
      3 C                     0.050245
      4 H                     0.175463
      5 C                    -0.280447
      6 S                    -0.000041
      7 C                    -0.274887
      8 H                     0.101225
      9 H                     0.107390
     10 H                     0.107372
     11 C                    -0.386852
     12 H                     0.143137
     13 H                     0.163735
     14 H                     0.142208
     15 H                     0.191961
  ----------------------------------------
  Sum of atomic charges =     0.000000

 -----------------------------------------------------------------
                    Cartesian Multipole Moments
 -----------------------------------------------------------------
    Charge (ESU x 10^10)
                -0.0000
    Dipole Moment (Debye)
         X      -0.6461      Y      -0.7750      Z       1.5347
       Tot       1.8367
    Quadrupole Moments (Debye-Ang)
        XX     -54.2392     XY       2.3549     YY     -41.7940
        XZ       0.1091     YZ       0.2483     ZZ     -48.5979
    Octopole Moments (Debye-Ang^2)
       XXX      -9.1682    XXY     -31.2037    XYY      -4.4090
       YYY     -83.0682    XXZ      -2.0146    XYZ      -0.6224
       YYZ      -4.3646    XZZ      -2.3673    YZZ     -26.2161
       ZZZ       0.6424
    Hexadecapole Moments (Debye-Ang^3)
      XXXX     -82.6042   XXXY     -31.6581   XXYY    -163.0831
      XYYY     -18.8839   YYYY    -805.2988   XXXZ      -8.2342
      XXYZ     -29.6810   XYYZ      -2.2566   YYYZ     -99.3197
      XXZZ    -102.9341   XYZZ      -8.5424   YYZZ    -209.5442
      XZZZ      -8.8478   YZZZ    -100.2756   ZZZZ    -484.4563
 -----------------------------------------------------------------
 Total job time:  161.98s(wall), 159.94s(cpu) 
 Sun Jul 10 10:23:01 2022

        *************************************************************
        *                                                           *
        *  Thank you very much for using Q-Chem.  Have a nice day.  *
        *                                                           *
        *************************************************************


remove work dirs ./qchem14512.0 -- ./qchem14512.-1
rm -rf ./qchem14512
