You are running Q-Chem version: 5.4.0

#
# job setting
#
local host:  exp-3-27
current dir: /expanse/lustre/scratch/theleonzhang/temp_project/Hydrogenated_Impropers_Test
input file:  Methylthiophene_Phi_20_Theta_130_Methylthiophene_Hydrogenated_Improper.qcin
output file: 
nprocs     : 0
nthreads   : 1
#
# qchem installation setting
#
QC:          /cm/shared/apps/spack/cpu/opt/spack/linux-centos8-zen2/gcc-10.2.0/qchem-5.4-akfmr7b3t57bfs6qan3padb2wnb2i7cl
QCAUX:       /cm/shared/apps/spack/cpu/opt/spack/linux-centos8-zen2/gcc-10.2.0/qchem-5.4-akfmr7b3t57bfs6qan3padb2wnb2i7cl/qcaux
QCPROG:      /cm/shared/apps/spack/cpu/opt/spack/linux-centos8-zen2/gcc-10.2.0/qchem-5.4-akfmr7b3t57bfs6qan3padb2wnb2i7cl/exe/qcprog.exe_s
QCPROG_S:    /cm/shared/apps/spack/cpu/opt/spack/linux-centos8-zen2/gcc-10.2.0/qchem-5.4-akfmr7b3t57bfs6qan3padb2wnb2i7cl/exe/qcprog.exe_s
PARALLEL:    -DSERIAL
QCMPI:       mpich
#
# qchem directory setting
#
qcrun:       qchem2536978
QCSCRATCH:   .
QCLOCALSCR:  
QCTMPDIR:    .
QCFILEPREF:  ./qchem2536978
QCSAVEDIR:   
workdirs:    ./qchem2536978
workdir0:    ./qchem2536978
partmpdirs =  
#
# parallel setting
#
QCRSH:           ssh
QCMPI:           mpich
QCMPIRUN:        /cm/shared/apps/spack/cpu/opt/spack/linux-centos8-zen2/gcc-10.2.0/qchem-5.4-akfmr7b3t57bfs6qan3padb2wnb2i7cl/bin/mpi/mpirun_qchem
QCMACHINEFILE:   ./qchem2536978/hostfile

#
# env setting
#
exported envs:   QC QCAUX QCSCRATCH QCRUNNAME QCFILEPREF QCPROG QCPROG_S GUIFILE

Running Job 1 of 1 Methylthiophene_Phi_20_Theta_130_Methylthiophene_Hydrogenated_Improper.qcin
qchem Methylthiophene_Phi_20_Theta_130_Methylthiophene_Hydrogenated_Improper.qcin_2536978.0 ./qchem2536978/ 0
/cm/shared/apps/spack/cpu/opt/spack/linux-centos8-zen2/gcc-10.2.0/qchem-5.4-akfmr7b3t57bfs6qan3padb2wnb2i7cl/exe/qcprog.exe_s Methylthiophene_Phi_20_Theta_130_Methylthiophene_Hydrogenated_Improper.qcin_2536978.0 ./qchem2536978/
                  Welcome to Q-Chem
     A Quantum Leap Into The Future Of Chemistry


 Q-Chem 5.4, Q-Chem, Inc., Pleasanton, CA (2021)

 License issued to: University of California, San Diego (site)

 E. Epifanovsky,  A. T. B. Gilbert,  Xintian Feng,  Joonho Lee,  Yuezhi Mao,  
 N. Mardirossian,  P. Pokhilko,  A. White,  M. Wormit,  M. P. Coons,  
 A. L. Dempwolff,  Zhengting Gan,  D. Hait,  P. R. Horn,  L. D. Jacobson,  
 I. Kaliman,  J. Kussmann,  A. W. Lange,  Ka Un Lao,  D. S. Levine,  Jie Liu,  
 S. C. McKenzie,  A. F. Morrison,  K. Nanda,  F. Plasser,  D. R. Rehn,  
 M. L. Vidal,  Zhi-Qiang You,  Ying Zhu,  B. Alam,  B. Albrecht,  
 A. Aldossary,  E. Alguire,  J. H. Andersen,  D. Barton,  K. Begam,  A. Behn,  
 Y. A. Bernard,  E. J. Berquist,  H. Burton,  A. Carreras,  K. Carter-Fenk,  
 R. Chakraborty,  A. D. Chien,  K. D. Closser,  V. Cofer-Shabica,  
 S. Dasgupta,  Jia Deng,  M. de Wergifosse,  M. Diedenhofen,  Hainam Do,  
 S. Ehlert,  Po-Tung Fang,  S. Fatehi,  Qingguo Feng,  J. Gayvert,  
 Qinghui Ge,  G. Gidofalvi,  M. Goldey,  J. Gomes,  C. Gonzalez-Espinoza,  
 S. Gulania,  A. Gunina,  M. W. D. Hanson-Heine,  P. H. P. Harbach,  
 A. W. Hauser,  M. F. Herbst,  M. Hernandez Vera,  M. Hodecker,  
 Z. C. Holden,  S. Houck,  Xunkun Huang,  Kerwin Hui,  B. C. Huynh,  
 M. Ivanov,  Hyunjun Ji,  Hanjie Jiang,  B. Kaduk,  S. Kaehler,  
 K. Khistyaev,  Jaehoon Kim,  P. Klunzinger,  Z. Koczor-Benda,  
 Joong Hoon Koh,  D. Kosenkov,  L. Koulias,  T. Kowalczyk,  C. M. Krauter,  
 K. Kue,  A. Kunitsa,  T. Kus,  A. Landau,  K. V. Lawler,  D. Lefrancois,  
 S. Lehtola,  Rain Li,  Yi-Pei Li,  Jiashu Liang,  M. Liebenthal,  
 Hung-Hsuan Lin,  You-Sheng Lin,  Fenglai Liu,  Kuan-Yu Liu,  
 M. Loipersberger,  A. Luenser,  A. Manjanath,  P. Manohar,  E. Mansoor,  
 S. F. Manzer,  Shan-Ping Mao,  A. V. Marenich,  T. Markovich,  S. Mason,  
 S. A. Maurer,  P. F. McLaughlin,  M. F. S. J. Menger,  J.-M. Mewes,  
 S. A. Mewes,  P. Morgante,  J. W. Mullinax,  T. S. Nguyen-Beck,  
 K. J. Oosterbaan,  G. Paran,  Alexander C. Paul,  Suranjan K. Paul,  
 F. Pavosevic,  Zheng Pei,  S. Prager,  E. I. Proynov,  E. Ramos,  B. Rana,  
 A. E. Rask,  A. Rettig,  R. M. Richard,  F. Rob,  E. Rossomme,  T. Scheele,  
 M. Scheurer,  M. Schneider,  N. Sergueev,  S. M. Sharada,  W. Skomorowski,  
 D. W. Small,  C. J. Stein,  Yu-Chuan Su,  E. J. Sundstrom,  Zhen Tao,  
 J. Thirman,  T. Tsuchimochi,  N. M. Tubman,  S. P. Veccham,  O. Vydrov,  
 J. Wenzel,  J. Witte,  A. Yamada,  Kun Yao,  S. Yeganeh,  S. R. Yost,  
 A. Zech,  Igor Ying Zhang,  Xing Zhang,  Yu Zhang,  D. Zuev,  
 A. Aspuru-Guzik,  A. T. Bell,  N. A. Besley,  K. B. Bravaya,  B. R. Brooks,  
 D. Casanova,  Jeng-Da Chai,  S. Coriani,  C. J. Cramer,  
 A. E. DePrince, III,  R. A. DiStasio Jr.,  A. Dreuw,  B. D. Dunietz,  
 T. R. Furlani,  W. A. Goddard III,  S. Grimme,  S. Hammes-Schiffer,  
 T. Head-Gordon,  W. J. Hehre,  Chao-Ping Hsu,  T.-C. Jagau,  Yousung Jung,  
 A. Klamt,  Jing Kong,  D. S. Lambrecht,  WanZhen Liang,  N. J. Mayhall,  
 C. W. McCurdy,  J. B. Neaton,  C. Ochsenfeld,  J. A. Parkhill,  R. Peverati,  
 V. A. Rassolov,  Yihan Shao,  L. V. Slipchenko,  T. Stauch,  R. P. Steele,  
 J. E. Subotnik,  A. J. W. Thom,  A. Tkatchenko,  D. G. Truhlar,  
 T. Van Voorhis,  T. A. Wesolowski,  K. B. Whaley,  H. L. Woodcock III,  
 P. M. Zimmerman,  S. Faraji,  P. M. W. Gill,  M. Head-Gordon,  
 J. M. Herbert,  A. I. Krylov

 Contributors to earlier versions of Q-Chem not listed above: 
 R. D. Adamson,  B. Austin,  R. Baer,  J. Baker,  G. J. O. Beran,  
 K. Brandhorst,  S. T. Brown,  E. F. C. Byrd,  A. K. Chakraborty,  
 G. K. L. Chan,  Chun-Min Chang,  Yunqing Chen,  C.-L. Cheng,  
 Siu Hung Chien,  D. M. Chipman,  D. L. Crittenden,  H. Dachsel,  
 R. J. Doerksen,  A. D. Dutoi,  R. G. Edgar,  J. Fosso-Tande,  
 L. Fusti-Molnar,  D. Ghosh,  A. Ghysels,  A. Golubeva-Zadorozhnaya,  
 J. Gonthier,  M. S. Gordon,  S. R. Gwaltney,  G. Hawkins,  J. E. Herr,  
 A. Heyden,  S. Hirata,  E. G. Hohenstein,  G. Kedziora,  F. J. Keil,  
 C. Kelley,  Jihan Kim,  R. A. King,  R. Z. Khaliullin,  P. P. Korambath,  
 W. Kurlancheek,  A. Laurent,  A. M. Lee,  M. S. Lee,  S. V. Levchenko,  
 Ching Yeh Lin,  D. Liotard,  E. Livshits,  R. C. Lochan,  I. Lotan,  
 L. A. Martinez-Martinez,  P. E. Maslen,  N. Nair,  D. P. O'Neill,  
 D. Neuhauser,  E. Neuscamman,  C. M. Oana,  R. Olivares-Amaya,  R. Olson,  
 T. M. Perrine,  B. Peters,  P. A. Pieniazek,  A. Prociuk,  Y. M. Rhee,  
 J. Ritchie,  M. A. Rohrdanz,  E. Rosta,  N. J. Russ,  H. F. Schaefer III,  
 M. W. Schmidt,  N. E. Schultz,  S. Sharma,  N. Shenvi,  C. D. Sherrill,  
 A. C. Simmonett,  A. Sodt,  T. Stein,  D. Stuck,  K. S. Thanthiriwatte,  
 V. Vanovschi,  L. Vogt,  Tao Wang,  A. Warshel,  M. A. Watson,  
 C. F. Williams,  Q. Wu,  X. Xu,  Jun Yang,  W. Zhang,  Yan Zhao

 Please cite Q-Chem as follows:
 Y. Shao et al., Mol. Phys. 113, 184-215 (2015)
 DOI: 10.1080/00268976.2014.952696

 Q-Chem 5.4.0 for Intel X86 EM64T Linux

 Parts of Q-Chem use Armadillo 9.800.1 (Horizon Scraper).
 http://arma.sourceforge.net/

 Q-Chem begins on Sun Jul 10 08:54:42 2022  

 Host: 
0

     Scratch files written to ./qchem2536978//
 May1621 |scratch|qcdevops|jenkins|workspace|build_RNUM    
 Processing $rem in /cm/shared/apps/spack/cpu/opt/spack/linux-centos8-zen2/gcc-10.2.0/qchem-5.4-akfmr7b3t57bfs6qan3padb2wnb2i7cl/config/preferences:
 Processing $rem in /home/theleonzhang/.qchemrc:
 Symmetry turned off for PCM/SM12/SMD calculation
 Core orbitals will be frozen

 Checking the input file for inconsistencies... 	...done.

--------------------------------------------------------------
User input:
--------------------------------------------------------------
$molecule
0 1
C	-0.228452	-0.535395	0.011685
C	0.066948	0.276105	1.111085
C	0.540248	1.576505	0.788385
H	-0.059152	-0.070395	2.147785
C	0.615748	1.783905	-0.600815
S	0.093848	0.350205	-1.475115
C	0.912348	2.598705	1.826285
H	0.766748	2.198705	2.848385
H	0.297548	3.518705	1.737885
H	1.974748	2.908305	1.737885
C	-0.228452	-1.976095	0.011685
H	-0.922752	-1.976295	0.838985
H	0.399048	-2.679895	0.538285
H	-0.954052	-2.494995	-0.597115
H	0.940448	2.675905	-1.149915
$end

$rem
JOBTYPE		SP
EXCHANGE	HF
CORRELATION	pRIMP2
BASIS		cc-pvtz
METHOD		rimp2
AUX_BASIS	rimp2-cc-pvtz
SOLVENT_METHOD	PCM
PURECART	11111
SYMMETRY	false
MEM_TOTAL	110000
SCF_CONVERGENCE = 6
THRESH=10
$end



$solvent
dielectric 4.90
$end
--------------------------------------------------------------
 ----------------------------------------------------------------
             Standard Nuclear Orientation (Angstroms)
    I     Atom           X                Y                Z
 ----------------------------------------------------------------
    1      C      -0.2284520000    -0.5353950000     0.0116850000
    2      C       0.0669480000     0.2761050000     1.1110850000
    3      C       0.5402480000     1.5765050000     0.7883850000
    4      H      -0.0591520000    -0.0703950000     2.1477850000
    5      C       0.6157480000     1.7839050000    -0.6008150000
    6      S       0.0938480000     0.3502050000    -1.4751150000
    7      C       0.9123480000     2.5987050000     1.8262850000
    8      H       0.7667480000     2.1987050000     2.8483850000
    9      H       0.2975480000     3.5187050000     1.7378850000
   10      H       1.9747480000     2.9083050000     1.7378850000
   11      C      -0.2284520000    -1.9760950000     0.0116850000
   12      H      -0.9227520000    -1.9762950000     0.8389850000
   13      H       0.3990480000    -2.6798950000     0.5382850000
   14      H      -0.9540520000    -2.4949950000    -0.5971150000
   15      H       0.9404480000     2.6759050000    -1.1499150000
 ----------------------------------------------------------------
 Nuclear Repulsion Energy =         344.76420139 hartrees
 There are       30 alpha and       30 beta electrons

 Q-Chem warning in module forms1/BasisType.C, line 2236:

 You are not using the predefined 5D/6D in this basis set.

 Requested basis set is cc-pVTZ
 There are 120 shells and 326 basis functions

 Total QAlloc Memory Limit 110000 MB
 Mega-Array Size       188 MB
 MEM_STATIC part       192 MB
 Discretize the solute cavity surface with Lebedev spheres
	Using 110 Lebedev grid points for each H atom
	Using 194 Lebedev grid points for other atoms
	Atomic van der Waals radii will be scaled by 1.20
 Remove points where switching function is < 1.0e-08
 Keep 1071 surface tesserae and discard 1167 interior tesserae
 Molecular Surface Area = 158.267 Angst**2

                       Distance Matrix (Angstroms)
             C (  1)   C (  2)   C (  3)   H (  4)   C (  5)   S (  6)
   C (  2)  1.398025
   C (  3)  2.377874  1.420981
   H (  4)  2.192672  1.100323  2.218001
   C (  5)  2.543026  2.346326  1.406624  3.383596
   S (  6)  1.760324  2.587401  2.612760  3.650441  1.758487
   C (  7)  3.796944  2.573069  1.503525  2.858543  2.577341  4.077369
   H (  8)  4.063569  2.684087  2.163801  2.514312  3.477332  4.749989
   H (  9)  4.437586  3.310666  2.175453  3.629999  2.929215  4.517107
   H ( 10)  4.437671  3.310749  2.175553  3.630072  2.929279  4.517193
   C ( 11)  1.440700  2.523558  3.716871  2.867626  3.901978  2.779590
   H ( 12)  1.800742  2.475248  3.842566  2.468039  4.310349  3.435278
   H ( 13)  2.295636  3.029245  4.266079  3.099988  4.611943  3.650813
   H ( 14)  2.176503  3.411654  4.552983  3.770147  4.557770  3.156603
   H ( 15)  3.609444  3.410889  2.264033  4.406381  1.096633  2.496271
             C (  7)   H (  8)   H (  9)   H ( 10)   C ( 11)   H ( 12)
   H (  8)  1.107198
   H (  9)  1.110042  1.787669
   H ( 10)  1.110117  1.787738  1.784822
   C ( 11)  5.052029  5.144535  5.783534  5.629496
   H ( 12)  5.027224  4.931807  5.700191  5.750030  1.080036
   H ( 13)  5.457659  5.410407  6.314427  5.928731  1.079999  1.527295
   H ( 14)  5.941557  6.071527  6.571401  6.574629  1.079995  1.527224
   H ( 15)  2.977334  4.030421  3.076202  3.076227  4.935255  5.391679
             H ( 13)   H ( 14)
   H ( 14)  1.776007
   H ( 15)  5.641607  5.534702
 
 Requested basis set is rimp2-cc-pVTZ
 There are 250 shells and 848 basis functions
 A cutoff of  1.0D-10 yielded   6191 shell pairs
 There are     45383 function pairs (     58361 Cartesian)
 Smallest overlap matrix eigenvalue = 1.00E-04

 Scale SEOQF with 1.000000e-01/1.000000e-01/1.000000e-01

 Standard Electronic Orientation quadrupole field applied
 Nucleus-field energy     =     0.0000000019 hartrees
 Guess from superposition of atomic densities
 Warning:  Energy on first SCF cycle will be non-variational
 SAD guess density has 60.000000 electrons

 -----------------------------------------------------------------------
  General SCF calculation program by
  Eric Jon Sundstrom, Paul Horn, Yuezhi Mao, Dmitri Zuev, Alec White,
  David Stuck, Shaama M.S., Shane Yost, Joonho Lee, David Small,
  Daniel Levine, Susi Lehtola, Hugh Burton, Evgeny Epifanovsky,
  Bang C. Huynh
 -----------------------------------------------------------------------
 Hartree-Fock
 A restricted SCF calculation will be
 performed using DIIS
 SCF converges when DIIS error is below 1.0e-06
 ---------------------------------------
  Cycle       Energy         DIIS error
 ---------------------------------------
    1    -632.1055688942      2.92e-02  
    2    -629.3371906594      1.91e-03  
    3    -629.4065839878      6.40e-04  
    4    -629.4135875275      3.27e-04  
    5    -629.4154486003      6.21e-05  
    6    -629.4155756363      2.46e-05  
    7    -629.4156063198      1.13e-05  
    8    -629.4156151925      4.90e-06  
    9    -629.4156166988      1.76e-06  
   10    -629.4156168878      5.34e-07  Convergence criterion met
 ---------------------------------------
 SCF time:   CPU 144.40s  wall 145.00s 

************** Final PCM Free Energy Summary **************
 G_electrostatic  =      -0.00548110 hartree =      -3.43944241 kcal/mol
 G_cavitation     =       0.00000000 hartree =       0.00000000 kcal/mol
 G_dispersion     =       0.00000000 hartree =       0.00000000 kcal/mol
 G_repulsion      =       0.00000000 hartree =       0.00000000 kcal/mol
 --------------------------------------------------
 Non-electrostatic Free Energy =       0.00000000 hartree =       0.00000000 kcal/mol
 Total                         =      -0.00548110 hartree =      -3.43944241 kcal/mol
 --------------------------------------------------
 SCF Energy (H0 + V/2)                       =    -629.41561689 
 Solute Internal Energy (H0)                 =    -629.41013579 
 Total Free Energy (H0 + V/2 + non-elec)     =    -629.41561689 hartree
                                             = -394964.26079239 kcal/mol
***********************************************************

 SCF   energy in the final basis set =     -629.4156168878
 Total energy in the final basis set =     -629.4156168878


 --------------------------------------------------------------
  Generalized many-body perturbation theory program
  by Joonho Lee, Fazle Rob, Xintian Feng, Evgeny Epifanovsky

 No regularization used 
 (reg. param. = 0.0000e+00)
  (P|Q)^-1/2 Time:  CPU 0.49 s  wall 0.49 s

 In RI-MP2 calculation: 
 # of frozen core orbitals: 11

 Components of the RIMP2 correlation energy:
        aaaa    correlation energy =        -0.1459184503 a.u.
        abab    correlation energy =        -0.8877786058 a.u.
        bbbb    correlation energy =        -0.1459184503 a.u.
        non-Brillouin singles      =        -0.0000000000 a.u.
        total same-spin energy     =        -0.2918369005 a.u.
        total opposite-spin energy =        -0.8877786058 a.u.

 Total  RIMP2   correlation energy =        -1.1796155063 a.u.
        RIMP2         total energy =      -630.5952323941 a.u.

 RI-MP2 Energy Time:  CPU 11.13 s  wall 11.17 s
 
 --------------------------------------------------------------
 
                    Orbital Energies (a.u.)
 --------------------------------------------------------------
 
 Alpha MOs
 -- Occupied --
-91.9753 -11.2757 -11.2573 -11.2475 -11.2329 -11.2273 -11.2162  -8.9754
 -6.6564  -6.6557  -6.6552  -1.1612  -1.0540  -0.9987  -0.9403  -0.8840
 -0.7429  -0.7229  -0.6488  -0.5875  -0.5766  -0.5652  -0.5598  -0.5429
 -0.5116  -0.4882  -0.4641  -0.4420  -0.3376  -0.2974
 -- Virtual --
  0.0995   0.1449   0.1498   0.1760   0.1782   0.1899   0.2115   0.2236
  0.2329   0.2422   0.2522   0.2646   0.3003   0.3135   0.3430   0.3510
  0.3841   0.3942   0.4128   0.4229   0.4325   0.4529   0.4741   0.4865
  0.4893   0.4994   0.5213   0.5290   0.5433   0.5522   0.5695   0.5817
  0.5979   0.6061   0.6157   0.6187   0.6332   0.6371   0.6460   0.6538
  0.6544   0.6617   0.6829   0.7024   0.7310   0.7522   0.7628   0.7777
  0.8076   0.8281   0.8439   0.8621   0.8693   0.8927   0.9095   0.9437
  0.9474   0.9632   0.9963   1.0118   1.0286   1.0398   1.0606   1.0763
  1.0818   1.0850   1.1123   1.1465   1.1516   1.1791   1.1884   1.2041
  1.2181   1.2402   1.2549   1.2679   1.2821   1.2873   1.3167   1.3320
  1.3453   1.3817   1.3951   1.4028   1.4244   1.4418   1.4483   1.4796
  1.4939   1.5098   1.5202   1.5385   1.5471   1.5542   1.5740   1.5831
  1.6003   1.6327   1.6556   1.6790   1.6954   1.7055   1.7148   1.7262
  1.7592   1.7813   1.8020   1.8228   1.8810   1.9161   1.9324   1.9676
  1.9920   2.0425   2.1001   2.1373   2.1816   2.1912   2.2005   2.2205
  2.2638   2.2820   2.3665   2.4198   2.4716   2.4820   2.5344   2.5525
  2.5798   2.5898   2.6377   2.6594   2.6726   2.6928   2.7123   2.7273
  2.7491   2.7598   2.7756   2.7881   2.8190   2.8495   2.8639   2.8698
  2.9068   2.9212   2.9684   2.9741   2.9940   3.0080   3.0380   3.0515
  3.0848   3.1001   3.1125   3.1480   3.1529   3.1556   3.1779   3.1970
  3.2010   3.2318   3.2652   3.2829   3.2921   3.3070   3.3228   3.3331
  3.3456   3.3635   3.3895   3.3985   3.4050   3.4171   3.4239   3.4334
  3.4427   3.4724   3.4902   3.5082   3.5135   3.5322   3.5381   3.5721
  3.5848   3.5872   3.6201   3.6235   3.6384   3.6498   3.6594   3.6779
  3.6843   3.7110   3.7177   3.7375   3.7574   3.7717   3.7897   3.7977
  3.8198   3.8332   3.8680   3.8751   3.8802   3.9052   3.9268   3.9527
  3.9700   3.9867   4.0195   4.0335   4.0372   4.0698   4.0992   4.1019
  4.1269   4.1354   4.1550   4.1707   4.2115   4.2207   4.2328   4.2677
  4.2805   4.2865   4.3254   4.3348   4.3373   4.3761   4.3785   4.4019
  4.4116   4.4357   4.4416   4.4591   4.4752   4.5227   4.5527   4.5858
  4.5977   4.6187   4.6383   4.6861   4.7137   4.7366   4.7612   4.7980
  4.8051   4.8271   4.8829   4.8961   4.9093   4.9270   5.0634   5.0859
  5.1084   5.1334   5.1841   5.1961   5.2164   5.2624   5.2861   5.3224
  5.3646   5.4043   5.4137   5.4403   5.4773   5.5072   5.5559   5.5658
  5.5737   5.6221   5.6372   5.6695   5.7088   5.8102   5.8383   5.8935
  5.9526   6.0224   6.0608   6.1229   6.2273   6.2492   6.2905   6.3680
  6.4576   6.5777   9.1975  11.4047  12.9131  13.7715  14.1795  14.5678
 --------------------------------------------------------------
 
          Ground-State Mulliken Net Atomic Charges

     Atom                 Charge (a.u.)
  ----------------------------------------
      1 C                     0.039132
      2 C                    -0.280253
      3 C                     0.040269
      4 H                     0.178097
      5 C                    -0.253745
      6 S                    -0.002586
      7 C                    -0.272931
      8 H                     0.101268
      9 H                     0.106960
     10 H                     0.107111
     11 C                    -0.369367
     12 H                     0.126300
     13 H                     0.152235
     14 H                     0.134825
     15 H                     0.192685
  ----------------------------------------
  Sum of atomic charges =     0.000000

 -----------------------------------------------------------------
                    Cartesian Multipole Moments
 -----------------------------------------------------------------
    Charge (ESU x 10^10)
                -0.0000
    Dipole Moment (Debye)
         X       0.0707      Y      -0.1655      Z       2.0157
       Tot       2.0237
    Quadrupole Moments (Debye-Ang)
        XX     -52.8093     XY       3.7655     YY     -43.2758
        XZ       0.2808     YZ      -0.8911     ZZ     -48.7012
    Octopole Moments (Debye-Ang^2)
       XXX     -36.3984    XXY     -27.5742    XYY      -7.2567
       YYY     -75.6564    XXZ      -2.5703    XYZ      -1.9046
       YYZ      -1.8185    XZZ     -10.2653    YZZ     -22.8746
       ZZZ       0.9931
    Hexadecapole Moments (Debye-Ang^3)
      XXXX    -147.7399   XXXY    -105.0467   XXYY    -152.5075
      XYYY     -89.1347   YYYY    -751.8186   XXXZ     -31.1090
      XXYZ     -28.4554   XYYZ     -11.1893   YYYZ    -101.2303
      XXZZ    -110.3702   XYZZ     -29.0999   YYZZ    -204.7151
      XZZZ     -34.9780   YZZZ     -92.0048   ZZZZ    -483.7490
 -----------------------------------------------------------------
 Total job time:  158.10s(wall), 155.91s(cpu) 
 Sun Jul 10 08:57:20 2022

        *************************************************************
        *                                                           *
        *  Thank you very much for using Q-Chem.  Have a nice day.  *
        *                                                           *
        *************************************************************


remove work dirs ./qchem2536978.0 -- ./qchem2536978.-1
rm -rf ./qchem2536978
You are running Q-Chem version: 5.4.0

#
# job setting
#
local host:  exp-3-46
current dir: /expanse/lustre/scratch/theleonzhang/temp_project/Hydrogenated_Impropers_Test
input file:  Methylthiophene_Phi_20_Theta_130_Methylthiophene_Hydrogenated_Improper.qcin
output file: 
nprocs     : 0
nthreads   : 1
#
# qchem installation setting
#
QC:          /cm/shared/apps/spack/cpu/opt/spack/linux-centos8-zen2/gcc-10.2.0/qchem-5.4-akfmr7b3t57bfs6qan3padb2wnb2i7cl
QCAUX:       /cm/shared/apps/spack/cpu/opt/spack/linux-centos8-zen2/gcc-10.2.0/qchem-5.4-akfmr7b3t57bfs6qan3padb2wnb2i7cl/qcaux
QCPROG:      /cm/shared/apps/spack/cpu/opt/spack/linux-centos8-zen2/gcc-10.2.0/qchem-5.4-akfmr7b3t57bfs6qan3padb2wnb2i7cl/exe/qcprog.exe_s
QCPROG_S:    /cm/shared/apps/spack/cpu/opt/spack/linux-centos8-zen2/gcc-10.2.0/qchem-5.4-akfmr7b3t57bfs6qan3padb2wnb2i7cl/exe/qcprog.exe_s
PARALLEL:    -DSERIAL
QCMPI:       mpich
#
# qchem directory setting
#
qcrun:       qchem2920355
QCSCRATCH:   .
QCLOCALSCR:  
QCTMPDIR:    .
QCFILEPREF:  ./qchem2920355
QCSAVEDIR:   
workdirs:    ./qchem2920355
workdir0:    ./qchem2920355
partmpdirs =  
#
# parallel setting
#
QCRSH:           ssh
QCMPI:           mpich
QCMPIRUN:        /cm/shared/apps/spack/cpu/opt/spack/linux-centos8-zen2/gcc-10.2.0/qchem-5.4-akfmr7b3t57bfs6qan3padb2wnb2i7cl/bin/mpi/mpirun_qchem
QCMACHINEFILE:   ./qchem2920355/hostfile

#
# env setting
#
exported envs:   QC QCAUX QCSCRATCH QCRUNNAME QCFILEPREF QCPROG QCPROG_S GUIFILE

Running Job 1 of 1 Methylthiophene_Phi_20_Theta_130_Methylthiophene_Hydrogenated_Improper.qcin
qchem Methylthiophene_Phi_20_Theta_130_Methylthiophene_Hydrogenated_Improper.qcin_2920355.0 ./qchem2920355/ 0
/cm/shared/apps/spack/cpu/opt/spack/linux-centos8-zen2/gcc-10.2.0/qchem-5.4-akfmr7b3t57bfs6qan3padb2wnb2i7cl/exe/qcprog.exe_s Methylthiophene_Phi_20_Theta_130_Methylthiophene_Hydrogenated_Improper.qcin_2920355.0 ./qchem2920355/
                  Welcome to Q-Chem
     A Quantum Leap Into The Future Of Chemistry


 Q-Chem 5.4, Q-Chem, Inc., Pleasanton, CA (2021)

 License issued to: University of California, San Diego (site)

 E. Epifanovsky,  A. T. B. Gilbert,  Xintian Feng,  Joonho Lee,  Yuezhi Mao,  
 N. Mardirossian,  P. Pokhilko,  A. White,  M. Wormit,  M. P. Coons,  
 A. L. Dempwolff,  Zhengting Gan,  D. Hait,  P. R. Horn,  L. D. Jacobson,  
 I. Kaliman,  J. Kussmann,  A. W. Lange,  Ka Un Lao,  D. S. Levine,  Jie Liu,  
 S. C. McKenzie,  A. F. Morrison,  K. Nanda,  F. Plasser,  D. R. Rehn,  
 M. L. Vidal,  Zhi-Qiang You,  Ying Zhu,  B. Alam,  B. Albrecht,  
 A. Aldossary,  E. Alguire,  J. H. Andersen,  D. Barton,  K. Begam,  A. Behn,  
 Y. A. Bernard,  E. J. Berquist,  H. Burton,  A. Carreras,  K. Carter-Fenk,  
 R. Chakraborty,  A. D. Chien,  K. D. Closser,  V. Cofer-Shabica,  
 S. Dasgupta,  Jia Deng,  M. de Wergifosse,  M. Diedenhofen,  Hainam Do,  
 S. Ehlert,  Po-Tung Fang,  S. Fatehi,  Qingguo Feng,  J. Gayvert,  
 Qinghui Ge,  G. Gidofalvi,  M. Goldey,  J. Gomes,  C. Gonzalez-Espinoza,  
 S. Gulania,  A. Gunina,  M. W. D. Hanson-Heine,  P. H. P. Harbach,  
 A. W. Hauser,  M. F. Herbst,  M. Hernandez Vera,  M. Hodecker,  
 Z. C. Holden,  S. Houck,  Xunkun Huang,  Kerwin Hui,  B. C. Huynh,  
 M. Ivanov,  Hyunjun Ji,  Hanjie Jiang,  B. Kaduk,  S. Kaehler,  
 K. Khistyaev,  Jaehoon Kim,  P. Klunzinger,  Z. Koczor-Benda,  
 Joong Hoon Koh,  D. Kosenkov,  L. Koulias,  T. Kowalczyk,  C. M. Krauter,  
 K. Kue,  A. Kunitsa,  T. Kus,  A. Landau,  K. V. Lawler,  D. Lefrancois,  
 S. Lehtola,  Rain Li,  Yi-Pei Li,  Jiashu Liang,  M. Liebenthal,  
 Hung-Hsuan Lin,  You-Sheng Lin,  Fenglai Liu,  Kuan-Yu Liu,  
 M. Loipersberger,  A. Luenser,  A. Manjanath,  P. Manohar,  E. Mansoor,  
 S. F. Manzer,  Shan-Ping Mao,  A. V. Marenich,  T. Markovich,  S. Mason,  
 S. A. Maurer,  P. F. McLaughlin,  M. F. S. J. Menger,  J.-M. Mewes,  
 S. A. Mewes,  P. Morgante,  J. W. Mullinax,  T. S. Nguyen-Beck,  
 K. J. Oosterbaan,  G. Paran,  Alexander C. Paul,  Suranjan K. Paul,  
 F. Pavosevic,  Zheng Pei,  S. Prager,  E. I. Proynov,  E. Ramos,  B. Rana,  
 A. E. Rask,  A. Rettig,  R. M. Richard,  F. Rob,  E. Rossomme,  T. Scheele,  
 M. Scheurer,  M. Schneider,  N. Sergueev,  S. M. Sharada,  W. Skomorowski,  
 D. W. Small,  C. J. Stein,  Yu-Chuan Su,  E. J. Sundstrom,  Zhen Tao,  
 J. Thirman,  T. Tsuchimochi,  N. M. Tubman,  S. P. Veccham,  O. Vydrov,  
 J. Wenzel,  J. Witte,  A. Yamada,  Kun Yao,  S. Yeganeh,  S. R. Yost,  
 A. Zech,  Igor Ying Zhang,  Xing Zhang,  Yu Zhang,  D. Zuev,  
 A. Aspuru-Guzik,  A. T. Bell,  N. A. Besley,  K. B. Bravaya,  B. R. Brooks,  
 D. Casanova,  Jeng-Da Chai,  S. Coriani,  C. J. Cramer,  
 A. E. DePrince, III,  R. A. DiStasio Jr.,  A. Dreuw,  B. D. Dunietz,  
 T. R. Furlani,  W. A. Goddard III,  S. Grimme,  S. Hammes-Schiffer,  
 T. Head-Gordon,  W. J. Hehre,  Chao-Ping Hsu,  T.-C. Jagau,  Yousung Jung,  
 A. Klamt,  Jing Kong,  D. S. Lambrecht,  WanZhen Liang,  N. J. Mayhall,  
 C. W. McCurdy,  J. B. Neaton,  C. Ochsenfeld,  J. A. Parkhill,  R. Peverati,  
 V. A. Rassolov,  Yihan Shao,  L. V. Slipchenko,  T. Stauch,  R. P. Steele,  
 J. E. Subotnik,  A. J. W. Thom,  A. Tkatchenko,  D. G. Truhlar,  
 T. Van Voorhis,  T. A. Wesolowski,  K. B. Whaley,  H. L. Woodcock III,  
 P. M. Zimmerman,  S. Faraji,  P. M. W. Gill,  M. Head-Gordon,  
 J. M. Herbert,  A. I. Krylov

 Contributors to earlier versions of Q-Chem not listed above: 
 R. D. Adamson,  B. Austin,  R. Baer,  J. Baker,  G. J. O. Beran,  
 K. Brandhorst,  S. T. Brown,  E. F. C. Byrd,  A. K. Chakraborty,  
 G. K. L. Chan,  Chun-Min Chang,  Yunqing Chen,  C.-L. Cheng,  
 Siu Hung Chien,  D. M. Chipman,  D. L. Crittenden,  H. Dachsel,  
 R. J. Doerksen,  A. D. Dutoi,  R. G. Edgar,  J. Fosso-Tande,  
 L. Fusti-Molnar,  D. Ghosh,  A. Ghysels,  A. Golubeva-Zadorozhnaya,  
 J. Gonthier,  M. S. Gordon,  S. R. Gwaltney,  G. Hawkins,  J. E. Herr,  
 A. Heyden,  S. Hirata,  E. G. Hohenstein,  G. Kedziora,  F. J. Keil,  
 C. Kelley,  Jihan Kim,  R. A. King,  R. Z. Khaliullin,  P. P. Korambath,  
 W. Kurlancheek,  A. Laurent,  A. M. Lee,  M. S. Lee,  S. V. Levchenko,  
 Ching Yeh Lin,  D. Liotard,  E. Livshits,  R. C. Lochan,  I. Lotan,  
 L. A. Martinez-Martinez,  P. E. Maslen,  N. Nair,  D. P. O'Neill,  
 D. Neuhauser,  E. Neuscamman,  C. M. Oana,  R. Olivares-Amaya,  R. Olson,  
 T. M. Perrine,  B. Peters,  P. A. Pieniazek,  A. Prociuk,  Y. M. Rhee,  
 J. Ritchie,  M. A. Rohrdanz,  E. Rosta,  N. J. Russ,  H. F. Schaefer III,  
 M. W. Schmidt,  N. E. Schultz,  S. Sharma,  N. Shenvi,  C. D. Sherrill,  
 A. C. Simmonett,  A. Sodt,  T. Stein,  D. Stuck,  K. S. Thanthiriwatte,  
 V. Vanovschi,  L. Vogt,  Tao Wang,  A. Warshel,  M. A. Watson,  
 C. F. Williams,  Q. Wu,  X. Xu,  Jun Yang,  W. Zhang,  Yan Zhao

 Please cite Q-Chem as follows:
 Y. Shao et al., Mol. Phys. 113, 184-215 (2015)
 DOI: 10.1080/00268976.2014.952696

 Q-Chem 5.4.0 for Intel X86 EM64T Linux

 Parts of Q-Chem use Armadillo 9.800.1 (Horizon Scraper).
 http://arma.sourceforge.net/

 Q-Chem begins on Sun Jul 10 09:32:22 2022  

 Host: 
0

     Scratch files written to ./qchem2920355//
 May1621 |scratch|qcdevops|jenkins|workspace|build_RNUM    
 Processing $rem in /cm/shared/apps/spack/cpu/opt/spack/linux-centos8-zen2/gcc-10.2.0/qchem-5.4-akfmr7b3t57bfs6qan3padb2wnb2i7cl/config/preferences:
 Processing $rem in /home/theleonzhang/.qchemrc:
 Symmetry turned off for PCM/SM12/SMD calculation
 Core orbitals will be frozen

 Checking the input file for inconsistencies... 	...done.

--------------------------------------------------------------
User input:
--------------------------------------------------------------
$molecule
0 1
C	-0.228452	-0.535395	0.011685
C	0.066948	0.276105	1.111085
C	0.540248	1.576505	0.788385
H	-0.059152	-0.070395	2.147785
C	0.615748	1.783905	-0.600815
S	0.093848	0.350205	-1.475115
C	0.912348	2.598705	1.826285
H	0.766748	2.198705	2.848385
H	0.297548	3.518705	1.737885
H	1.974748	2.908305	1.737885
C	-0.228452	-1.976095	0.011685
H	-0.922752	-1.976295	0.838985
H	0.399048	-2.679895	0.538285
H	-0.954052	-2.494995	-0.597115
H	0.940448	2.675905	-1.149915
$end

$rem
JOBTYPE		SP
EXCHANGE	HF
CORRELATION	pRIMP2
BASIS		cc-pvtz
METHOD		rimp2
AUX_BASIS	rimp2-cc-pvtz
SOLVENT_METHOD	PCM
PURECART	11111
SYMMETRY	false
MEM_TOTAL	110000
SCF_CONVERGENCE = 6
THRESH=10
$end



$solvent
dielectric 4.90
$end
--------------------------------------------------------------
 ----------------------------------------------------------------
             Standard Nuclear Orientation (Angstroms)
    I     Atom           X                Y                Z
 ----------------------------------------------------------------
    1      C      -0.2284520000    -0.5353950000     0.0116850000
    2      C       0.0669480000     0.2761050000     1.1110850000
    3      C       0.5402480000     1.5765050000     0.7883850000
    4      H      -0.0591520000    -0.0703950000     2.1477850000
    5      C       0.6157480000     1.7839050000    -0.6008150000
    6      S       0.0938480000     0.3502050000    -1.4751150000
    7      C       0.9123480000     2.5987050000     1.8262850000
    8      H       0.7667480000     2.1987050000     2.8483850000
    9      H       0.2975480000     3.5187050000     1.7378850000
   10      H       1.9747480000     2.9083050000     1.7378850000
   11      C      -0.2284520000    -1.9760950000     0.0116850000
   12      H      -0.9227520000    -1.9762950000     0.8389850000
   13      H       0.3990480000    -2.6798950000     0.5382850000
   14      H      -0.9540520000    -2.4949950000    -0.5971150000
   15      H       0.9404480000     2.6759050000    -1.1499150000
 ----------------------------------------------------------------
 Nuclear Repulsion Energy =         344.76420139 hartrees
 There are       30 alpha and       30 beta electrons

 Q-Chem warning in module forms1/BasisType.C, line 2236:

 You are not using the predefined 5D/6D in this basis set.

 Requested basis set is cc-pVTZ
 There are 120 shells and 326 basis functions

 Total QAlloc Memory Limit 110000 MB
 Mega-Array Size       188 MB
 MEM_STATIC part       192 MB
 Discretize the solute cavity surface with Lebedev spheres
	Using 110 Lebedev grid points for each H atom
	Using 194 Lebedev grid points for other atoms
	Atomic van der Waals radii will be scaled by 1.20
 Remove points where switching function is < 1.0e-08
 Keep 1071 surface tesserae and discard 1167 interior tesserae
 Molecular Surface Area = 158.267 Angst**2

                       Distance Matrix (Angstroms)
             C (  1)   C (  2)   C (  3)   H (  4)   C (  5)   S (  6)
   C (  2)  1.398025
   C (  3)  2.377874  1.420981
   H (  4)  2.192672  1.100323  2.218001
   C (  5)  2.543026  2.346326  1.406624  3.383596
   S (  6)  1.760324  2.587401  2.612760  3.650441  1.758487
   C (  7)  3.796944  2.573069  1.503525  2.858543  2.577341  4.077369
   H (  8)  4.063569  2.684087  2.163801  2.514312  3.477332  4.749989
   H (  9)  4.437586  3.310666  2.175453  3.629999  2.929215  4.517107
   H ( 10)  4.437671  3.310749  2.175553  3.630072  2.929279  4.517193
   C ( 11)  1.440700  2.523558  3.716871  2.867626  3.901978  2.779590
   H ( 12)  1.800742  2.475248  3.842566  2.468039  4.310349  3.435278
   H ( 13)  2.295636  3.029245  4.266079  3.099988  4.611943  3.650813
   H ( 14)  2.176503  3.411654  4.552983  3.770147  4.557770  3.156603
   H ( 15)  3.609444  3.410889  2.264033  4.406381  1.096633  2.496271
             C (  7)   H (  8)   H (  9)   H ( 10)   C ( 11)   H ( 12)
   H (  8)  1.107198
   H (  9)  1.110042  1.787669
   H ( 10)  1.110117  1.787738  1.784822
   C ( 11)  5.052029  5.144535  5.783534  5.629496
   H ( 12)  5.027224  4.931807  5.700191  5.750030  1.080036
   H ( 13)  5.457659  5.410407  6.314427  5.928731  1.079999  1.527295
   H ( 14)  5.941557  6.071527  6.571401  6.574629  1.079995  1.527224
   H ( 15)  2.977334  4.030421  3.076202  3.076227  4.935255  5.391679
             H ( 13)   H ( 14)
   H ( 14)  1.776007
   H ( 15)  5.641607  5.534702
 
 Requested basis set is rimp2-cc-pVTZ
 There are 250 shells and 848 basis functions
 A cutoff of  1.0D-10 yielded   6191 shell pairs
 There are     45383 function pairs (     58361 Cartesian)
 Smallest overlap matrix eigenvalue = 1.00E-04

 Scale SEOQF with 1.000000e-01/1.000000e-01/1.000000e-01

 Standard Electronic Orientation quadrupole field applied
 Nucleus-field energy     =     0.0000000019 hartrees
 Guess from superposition of atomic densities
 Warning:  Energy on first SCF cycle will be non-variational
 SAD guess density has 60.000000 electrons

 -----------------------------------------------------------------------
  General SCF calculation program by
  Eric Jon Sundstrom, Paul Horn, Yuezhi Mao, Dmitri Zuev, Alec White,
  David Stuck, Shaama M.S., Shane Yost, Joonho Lee, David Small,
  Daniel Levine, Susi Lehtola, Hugh Burton, Evgeny Epifanovsky,
  Bang C. Huynh
 -----------------------------------------------------------------------
 Hartree-Fock
 A restricted SCF calculation will be
 performed using DIIS
 SCF converges when DIIS error is below 1.0e-06
 ---------------------------------------
  Cycle       Energy         DIIS error
 ---------------------------------------
    1    -632.1055688942      2.92e-02  
    2    -629.3371906594      1.91e-03  
    3    -629.4065839878      6.40e-04  
    4    -629.4135875275      3.27e-04  
    5    -629.4154486003      6.21e-05  
    6    -629.4155756363      2.46e-05  
    7    -629.4156063198      1.13e-05  
    8    -629.4156151925      4.90e-06  
    9    -629.4156166988      1.76e-06  
   10    -629.4156168878      5.34e-07  Convergence criterion met
 ---------------------------------------
 SCF time:   CPU 144.71s  wall 145.00s 

************** Final PCM Free Energy Summary **************
 G_electrostatic  =      -0.00548110 hartree =      -3.43944241 kcal/mol
 G_cavitation     =       0.00000000 hartree =       0.00000000 kcal/mol
 G_dispersion     =       0.00000000 hartree =       0.00000000 kcal/mol
 G_repulsion      =       0.00000000 hartree =       0.00000000 kcal/mol
 --------------------------------------------------
 Non-electrostatic Free Energy =       0.00000000 hartree =       0.00000000 kcal/mol
 Total                         =      -0.00548110 hartree =      -3.43944241 kcal/mol
 --------------------------------------------------
 SCF Energy (H0 + V/2)                       =    -629.41561689 
 Solute Internal Energy (H0)                 =    -629.41013579 
 Total Free Energy (H0 + V/2 + non-elec)     =    -629.41561689 hartree
                                             = -394964.26079239 kcal/mol
***********************************************************

 SCF   energy in the final basis set =     -629.4156168878
 Total energy in the final basis set =     -629.4156168878


 --------------------------------------------------------------
  Generalized many-body perturbation theory program
  by Joonho Lee, Fazle Rob, Xintian Feng, Evgeny Epifanovsky

 No regularization used 
 (reg. param. = 0.0000e+00)
  (P|Q)^-1/2 Time:  CPU 0.49 s  wall 0.49 s

 In RI-MP2 calculation: 
 # of frozen core orbitals: 11

 Components of the RIMP2 correlation energy:
        aaaa    correlation energy =        -0.1459184503 a.u.
        abab    correlation energy =        -0.8877786058 a.u.
        bbbb    correlation energy =        -0.1459184503 a.u.
        non-Brillouin singles      =        -0.0000000000 a.u.
        total same-spin energy     =        -0.2918369005 a.u.
        total opposite-spin energy =        -0.8877786058 a.u.

 Total  RIMP2   correlation energy =        -1.1796155063 a.u.
        RIMP2         total energy =      -630.5952323941 a.u.

 RI-MP2 Energy Time:  CPU 11.35 s  wall 11.39 s
 
 --------------------------------------------------------------
 
                    Orbital Energies (a.u.)
 --------------------------------------------------------------
 
 Alpha MOs
 -- Occupied --
-91.9753 -11.2757 -11.2573 -11.2475 -11.2329 -11.2273 -11.2162  -8.9754
 -6.6564  -6.6557  -6.6552  -1.1612  -1.0540  -0.9987  -0.9403  -0.8840
 -0.7429  -0.7229  -0.6488  -0.5875  -0.5766  -0.5652  -0.5598  -0.5429
 -0.5116  -0.4882  -0.4641  -0.4420  -0.3376  -0.2974
 -- Virtual --
  0.0995   0.1449   0.1498   0.1760   0.1782   0.1899   0.2115   0.2236
  0.2329   0.2422   0.2522   0.2646   0.3003   0.3135   0.3430   0.3510
  0.3841   0.3942   0.4128   0.4229   0.4325   0.4529   0.4741   0.4865
  0.4893   0.4994   0.5213   0.5290   0.5433   0.5522   0.5695   0.5817
  0.5979   0.6061   0.6157   0.6187   0.6332   0.6371   0.6460   0.6538
  0.6544   0.6617   0.6829   0.7024   0.7310   0.7522   0.7628   0.7777
  0.8076   0.8281   0.8439   0.8621   0.8693   0.8927   0.9095   0.9437
  0.9474   0.9632   0.9963   1.0118   1.0286   1.0398   1.0606   1.0763
  1.0818   1.0850   1.1123   1.1465   1.1516   1.1791   1.1884   1.2041
  1.2181   1.2402   1.2549   1.2679   1.2821   1.2873   1.3167   1.3320
  1.3453   1.3817   1.3951   1.4028   1.4244   1.4418   1.4483   1.4796
  1.4939   1.5098   1.5202   1.5385   1.5471   1.5542   1.5740   1.5831
  1.6003   1.6327   1.6556   1.6790   1.6954   1.7055   1.7148   1.7262
  1.7592   1.7813   1.8020   1.8228   1.8810   1.9161   1.9324   1.9676
  1.9920   2.0425   2.1001   2.1373   2.1816   2.1912   2.2005   2.2205
  2.2638   2.2820   2.3665   2.4198   2.4716   2.4820   2.5344   2.5525
  2.5798   2.5898   2.6377   2.6594   2.6726   2.6928   2.7123   2.7273
  2.7491   2.7598   2.7756   2.7881   2.8190   2.8495   2.8639   2.8698
  2.9068   2.9212   2.9684   2.9741   2.9940   3.0080   3.0380   3.0515
  3.0848   3.1001   3.1125   3.1480   3.1529   3.1556   3.1779   3.1970
  3.2010   3.2318   3.2652   3.2829   3.2921   3.3070   3.3228   3.3331
  3.3456   3.3635   3.3895   3.3985   3.4050   3.4171   3.4239   3.4334
  3.4427   3.4724   3.4902   3.5082   3.5135   3.5322   3.5381   3.5721
  3.5848   3.5872   3.6201   3.6235   3.6384   3.6498   3.6594   3.6779
  3.6843   3.7110   3.7177   3.7375   3.7574   3.7717   3.7897   3.7977
  3.8198   3.8332   3.8680   3.8751   3.8802   3.9052   3.9268   3.9527
  3.9700   3.9867   4.0195   4.0335   4.0372   4.0698   4.0992   4.1019
  4.1269   4.1354   4.1550   4.1707   4.2115   4.2207   4.2328   4.2677
  4.2805   4.2865   4.3254   4.3348   4.3373   4.3761   4.3785   4.4019
  4.4116   4.4357   4.4416   4.4591   4.4752   4.5227   4.5527   4.5858
  4.5977   4.6187   4.6383   4.6861   4.7137   4.7366   4.7612   4.7980
  4.8051   4.8271   4.8829   4.8961   4.9093   4.9270   5.0634   5.0859
  5.1084   5.1334   5.1841   5.1961   5.2164   5.2624   5.2861   5.3224
  5.3646   5.4043   5.4137   5.4403   5.4773   5.5072   5.5559   5.5658
  5.5737   5.6221   5.6372   5.6695   5.7088   5.8102   5.8383   5.8935
  5.9526   6.0224   6.0608   6.1229   6.2273   6.2492   6.2905   6.3680
  6.4576   6.5777   9.1975  11.4047  12.9131  13.7715  14.1795  14.5678
 --------------------------------------------------------------
 
          Ground-State Mulliken Net Atomic Charges

     Atom                 Charge (a.u.)
  ----------------------------------------
      1 C                     0.039132
      2 C                    -0.280253
      3 C                     0.040269
      4 H                     0.178097
      5 C                    -0.253745
      6 S                    -0.002586
      7 C                    -0.272931
      8 H                     0.101268
      9 H                     0.106960
     10 H                     0.107111
     11 C                    -0.369367
     12 H                     0.126300
     13 H                     0.152235
     14 H                     0.134825
     15 H                     0.192685
  ----------------------------------------
  Sum of atomic charges =     0.000000

 -----------------------------------------------------------------
                    Cartesian Multipole Moments
 -----------------------------------------------------------------
    Charge (ESU x 10^10)
                -0.0000
    Dipole Moment (Debye)
         X       0.0707      Y      -0.1655      Z       2.0157
       Tot       2.0237
    Quadrupole Moments (Debye-Ang)
        XX     -52.8093     XY       3.7655     YY     -43.2758
        XZ       0.2808     YZ      -0.8911     ZZ     -48.7012
    Octopole Moments (Debye-Ang^2)
       XXX     -36.3984    XXY     -27.5742    XYY      -7.2567
       YYY     -75.6564    XXZ      -2.5703    XYZ      -1.9046
       YYZ      -1.8185    XZZ     -10.2653    YZZ     -22.8746
       ZZZ       0.9931
    Hexadecapole Moments (Debye-Ang^3)
      XXXX    -147.7399   XXXY    -105.0467   XXYY    -152.5075
      XYYY     -89.1347   YYYY    -751.8186   XXXZ     -31.1090
      XXYZ     -28.4554   XYYZ     -11.1893   YYYZ    -101.2303
      XXZZ    -110.3702   XYZZ     -29.0999   YYZZ    -204.7151
      XZZZ     -34.9780   YZZZ     -92.0048   ZZZZ    -483.7490
 -----------------------------------------------------------------
 Total job time:  158.38s(wall), 156.42s(cpu) 
 Sun Jul 10 09:35:01 2022

        *************************************************************
        *                                                           *
        *  Thank you very much for using Q-Chem.  Have a nice day.  *
        *                                                           *
        *************************************************************


remove work dirs ./qchem2920355.0 -- ./qchem2920355.-1
rm -rf ./qchem2920355
