You are running Q-Chem version: 5.4.0

#
# job setting
#
local host:  exp-2-07
current dir: /expanse/lustre/scratch/theleonzhang/temp_project/Hydrogenated_Impropers_Test
input file:  Methylthiophene_Phi_30_Theta_280_Methylthiophene_Hydrogenated_Improper.qcin
output file: 
nprocs     : 0
nthreads   : 1
#
# qchem installation setting
#
QC:          /cm/shared/apps/spack/cpu/opt/spack/linux-centos8-zen2/gcc-10.2.0/qchem-5.4-akfmr7b3t57bfs6qan3padb2wnb2i7cl
QCAUX:       /cm/shared/apps/spack/cpu/opt/spack/linux-centos8-zen2/gcc-10.2.0/qchem-5.4-akfmr7b3t57bfs6qan3padb2wnb2i7cl/qcaux
QCPROG:      /cm/shared/apps/spack/cpu/opt/spack/linux-centos8-zen2/gcc-10.2.0/qchem-5.4-akfmr7b3t57bfs6qan3padb2wnb2i7cl/exe/qcprog.exe_s
QCPROG_S:    /cm/shared/apps/spack/cpu/opt/spack/linux-centos8-zen2/gcc-10.2.0/qchem-5.4-akfmr7b3t57bfs6qan3padb2wnb2i7cl/exe/qcprog.exe_s
PARALLEL:    -DSERIAL
QCMPI:       mpich
#
# qchem directory setting
#
qcrun:       qchem984719
QCSCRATCH:   .
QCLOCALSCR:  
QCTMPDIR:    .
QCFILEPREF:  ./qchem984719
QCSAVEDIR:   
workdirs:    ./qchem984719
workdir0:    ./qchem984719
partmpdirs =  
#
# parallel setting
#
QCRSH:           ssh
QCMPI:           mpich
QCMPIRUN:        /cm/shared/apps/spack/cpu/opt/spack/linux-centos8-zen2/gcc-10.2.0/qchem-5.4-akfmr7b3t57bfs6qan3padb2wnb2i7cl/bin/mpi/mpirun_qchem
QCMACHINEFILE:   ./qchem984719/hostfile

#
# env setting
#
exported envs:   QC QCAUX QCSCRATCH QCRUNNAME QCFILEPREF QCPROG QCPROG_S GUIFILE

Running Job 1 of 1 Methylthiophene_Phi_30_Theta_280_Methylthiophene_Hydrogenated_Improper.qcin
qchem Methylthiophene_Phi_30_Theta_280_Methylthiophene_Hydrogenated_Improper.qcin_984719.0 ./qchem984719/ 0
/cm/shared/apps/spack/cpu/opt/spack/linux-centos8-zen2/gcc-10.2.0/qchem-5.4-akfmr7b3t57bfs6qan3padb2wnb2i7cl/exe/qcprog.exe_s Methylthiophene_Phi_30_Theta_280_Methylthiophene_Hydrogenated_Improper.qcin_984719.0 ./qchem984719/
                  Welcome to Q-Chem
     A Quantum Leap Into The Future Of Chemistry


 Q-Chem 5.4, Q-Chem, Inc., Pleasanton, CA (2021)

 License issued to: University of California, San Diego (site)

 E. Epifanovsky,  A. T. B. Gilbert,  Xintian Feng,  Joonho Lee,  Yuezhi Mao,  
 N. Mardirossian,  P. Pokhilko,  A. White,  M. Wormit,  M. P. Coons,  
 A. L. Dempwolff,  Zhengting Gan,  D. Hait,  P. R. Horn,  L. D. Jacobson,  
 I. Kaliman,  J. Kussmann,  A. W. Lange,  Ka Un Lao,  D. S. Levine,  Jie Liu,  
 S. C. McKenzie,  A. F. Morrison,  K. Nanda,  F. Plasser,  D. R. Rehn,  
 M. L. Vidal,  Zhi-Qiang You,  Ying Zhu,  B. Alam,  B. Albrecht,  
 A. Aldossary,  E. Alguire,  J. H. Andersen,  D. Barton,  K. Begam,  A. Behn,  
 Y. A. Bernard,  E. J. Berquist,  H. Burton,  A. Carreras,  K. Carter-Fenk,  
 R. Chakraborty,  A. D. Chien,  K. D. Closser,  V. Cofer-Shabica,  
 S. Dasgupta,  Jia Deng,  M. de Wergifosse,  M. Diedenhofen,  Hainam Do,  
 S. Ehlert,  Po-Tung Fang,  S. Fatehi,  Qingguo Feng,  J. Gayvert,  
 Qinghui Ge,  G. Gidofalvi,  M. Goldey,  J. Gomes,  C. Gonzalez-Espinoza,  
 S. Gulania,  A. Gunina,  M. W. D. Hanson-Heine,  P. H. P. Harbach,  
 A. W. Hauser,  M. F. Herbst,  M. Hernandez Vera,  M. Hodecker,  
 Z. C. Holden,  S. Houck,  Xunkun Huang,  Kerwin Hui,  B. C. Huynh,  
 M. Ivanov,  Hyunjun Ji,  Hanjie Jiang,  B. Kaduk,  S. Kaehler,  
 K. Khistyaev,  Jaehoon Kim,  P. Klunzinger,  Z. Koczor-Benda,  
 Joong Hoon Koh,  D. Kosenkov,  L. Koulias,  T. Kowalczyk,  C. M. Krauter,  
 K. Kue,  A. Kunitsa,  T. Kus,  A. Landau,  K. V. Lawler,  D. Lefrancois,  
 S. Lehtola,  Rain Li,  Yi-Pei Li,  Jiashu Liang,  M. Liebenthal,  
 Hung-Hsuan Lin,  You-Sheng Lin,  Fenglai Liu,  Kuan-Yu Liu,  
 M. Loipersberger,  A. Luenser,  A. Manjanath,  P. Manohar,  E. Mansoor,  
 S. F. Manzer,  Shan-Ping Mao,  A. V. Marenich,  T. Markovich,  S. Mason,  
 S. A. Maurer,  P. F. McLaughlin,  M. F. S. J. Menger,  J.-M. Mewes,  
 S. A. Mewes,  P. Morgante,  J. W. Mullinax,  T. S. Nguyen-Beck,  
 K. J. Oosterbaan,  G. Paran,  Alexander C. Paul,  Suranjan K. Paul,  
 F. Pavosevic,  Zheng Pei,  S. Prager,  E. I. Proynov,  E. Ramos,  B. Rana,  
 A. E. Rask,  A. Rettig,  R. M. Richard,  F. Rob,  E. Rossomme,  T. Scheele,  
 M. Scheurer,  M. Schneider,  N. Sergueev,  S. M. Sharada,  W. Skomorowski,  
 D. W. Small,  C. J. Stein,  Yu-Chuan Su,  E. J. Sundstrom,  Zhen Tao,  
 J. Thirman,  T. Tsuchimochi,  N. M. Tubman,  S. P. Veccham,  O. Vydrov,  
 J. Wenzel,  J. Witte,  A. Yamada,  Kun Yao,  S. Yeganeh,  S. R. Yost,  
 A. Zech,  Igor Ying Zhang,  Xing Zhang,  Yu Zhang,  D. Zuev,  
 A. Aspuru-Guzik,  A. T. Bell,  N. A. Besley,  K. B. Bravaya,  B. R. Brooks,  
 D. Casanova,  Jeng-Da Chai,  S. Coriani,  C. J. Cramer,  
 A. E. DePrince, III,  R. A. DiStasio Jr.,  A. Dreuw,  B. D. Dunietz,  
 T. R. Furlani,  W. A. Goddard III,  S. Grimme,  S. Hammes-Schiffer,  
 T. Head-Gordon,  W. J. Hehre,  Chao-Ping Hsu,  T.-C. Jagau,  Yousung Jung,  
 A. Klamt,  Jing Kong,  D. S. Lambrecht,  WanZhen Liang,  N. J. Mayhall,  
 C. W. McCurdy,  J. B. Neaton,  C. Ochsenfeld,  J. A. Parkhill,  R. Peverati,  
 V. A. Rassolov,  Yihan Shao,  L. V. Slipchenko,  T. Stauch,  R. P. Steele,  
 J. E. Subotnik,  A. J. W. Thom,  A. Tkatchenko,  D. G. Truhlar,  
 T. Van Voorhis,  T. A. Wesolowski,  K. B. Whaley,  H. L. Woodcock III,  
 P. M. Zimmerman,  S. Faraji,  P. M. W. Gill,  M. Head-Gordon,  
 J. M. Herbert,  A. I. Krylov

 Contributors to earlier versions of Q-Chem not listed above: 
 R. D. Adamson,  B. Austin,  R. Baer,  J. Baker,  G. J. O. Beran,  
 K. Brandhorst,  S. T. Brown,  E. F. C. Byrd,  A. K. Chakraborty,  
 G. K. L. Chan,  Chun-Min Chang,  Yunqing Chen,  C.-L. Cheng,  
 Siu Hung Chien,  D. M. Chipman,  D. L. Crittenden,  H. Dachsel,  
 R. J. Doerksen,  A. D. Dutoi,  R. G. Edgar,  J. Fosso-Tande,  
 L. Fusti-Molnar,  D. Ghosh,  A. Ghysels,  A. Golubeva-Zadorozhnaya,  
 J. Gonthier,  M. S. Gordon,  S. R. Gwaltney,  G. Hawkins,  J. E. Herr,  
 A. Heyden,  S. Hirata,  E. G. Hohenstein,  G. Kedziora,  F. J. Keil,  
 C. Kelley,  Jihan Kim,  R. A. King,  R. Z. Khaliullin,  P. P. Korambath,  
 W. Kurlancheek,  A. Laurent,  A. M. Lee,  M. S. Lee,  S. V. Levchenko,  
 Ching Yeh Lin,  D. Liotard,  E. Livshits,  R. C. Lochan,  I. Lotan,  
 L. A. Martinez-Martinez,  P. E. Maslen,  N. Nair,  D. P. O'Neill,  
 D. Neuhauser,  E. Neuscamman,  C. M. Oana,  R. Olivares-Amaya,  R. Olson,  
 T. M. Perrine,  B. Peters,  P. A. Pieniazek,  A. Prociuk,  Y. M. Rhee,  
 J. Ritchie,  M. A. Rohrdanz,  E. Rosta,  N. J. Russ,  H. F. Schaefer III,  
 M. W. Schmidt,  N. E. Schultz,  S. Sharma,  N. Shenvi,  C. D. Sherrill,  
 A. C. Simmonett,  A. Sodt,  T. Stein,  D. Stuck,  K. S. Thanthiriwatte,  
 V. Vanovschi,  L. Vogt,  Tao Wang,  A. Warshel,  M. A. Watson,  
 C. F. Williams,  Q. Wu,  X. Xu,  Jun Yang,  W. Zhang,  Yan Zhao

 Please cite Q-Chem as follows:
 Y. Shao et al., Mol. Phys. 113, 184-215 (2015)
 DOI: 10.1080/00268976.2014.952696

 Q-Chem 5.4.0 for Intel X86 EM64T Linux

 Parts of Q-Chem use Armadillo 9.800.1 (Horizon Scraper).
 http://arma.sourceforge.net/

 Q-Chem begins on Sun Jul 10 09:38:14 2022  

 Host: 
0

     Scratch files written to ./qchem984719//
 May1621 |scratch|qcdevops|jenkins|workspace|build_RNUM    
 Processing $rem in /cm/shared/apps/spack/cpu/opt/spack/linux-centos8-zen2/gcc-10.2.0/qchem-5.4-akfmr7b3t57bfs6qan3padb2wnb2i7cl/config/preferences:
 Processing $rem in /home/theleonzhang/.qchemrc:
 Symmetry turned off for PCM/SM12/SMD calculation
 Core orbitals will be frozen

 Checking the input file for inconsistencies... 	...done.

--------------------------------------------------------------
User input:
--------------------------------------------------------------
$molecule
0 1
C	-0.338900	-0.485421	0.010154
C	0.092900	0.262479	1.109554
C	0.784900	1.460979	0.786854
H	-0.091500	-0.056921	2.146254
C	0.895200	1.652079	-0.602346
S	0.132300	0.330679	-1.476646
C	1.328800	2.402979	1.824754
H	1.116000	2.034379	2.846854
H	0.883100	3.415779	1.736354
H	2.428800	2.523379	1.736354
C	-0.338900	-1.926121	0.010154
H	-0.526600	-1.925821	1.073754
H	-1.145600	-2.629921	-0.132146
H	0.593800	-2.445021	0.174654
H	1.369900	2.474079	-1.151446
$end

$rem
JOBTYPE		SP
EXCHANGE	HF
CORRELATION	pRIMP2
BASIS		cc-pvtz
METHOD		rimp2
AUX_BASIS	rimp2-cc-pvtz
SOLVENT_METHOD	PCM
PURECART	11111
SYMMETRY	false
MEM_TOTAL	110000
SCF_CONVERGENCE = 6
THRESH=10
$end



$solvent
dielectric 4.90
$end
--------------------------------------------------------------
 ----------------------------------------------------------------
             Standard Nuclear Orientation (Angstroms)
    I     Atom           X                Y                Z
 ----------------------------------------------------------------
    1      C      -0.3389000000    -0.4854210000     0.0101540000
    2      C       0.0929000000     0.2624790000     1.1095540000
    3      C       0.7849000000     1.4609790000     0.7868540000
    4      H      -0.0915000000    -0.0569210000     2.1462540000
    5      C       0.8952000000     1.6520790000    -0.6023460000
    6      S       0.1323000000     0.3306790000    -1.4766460000
    7      C       1.3288000000     2.4029790000     1.8247540000
    8      H       1.1160000000     2.0343790000     2.8468540000
    9      H       0.8831000000     3.4157790000     1.7363540000
   10      H       2.4288000000     2.5233790000     1.7363540000
   11      C      -0.3389000000    -1.9261210000     0.0101540000
   12      H      -0.5266000000    -1.9258210000     1.0737540000
   13      H      -1.1456000000    -2.6299210000    -0.1321460000
   14      H       0.5938000000    -2.4450210000     0.1746540000
   15      H       1.3699000000     2.4740790000    -1.1514460000
 ----------------------------------------------------------------
 Nuclear Repulsion Energy =         345.82912247 hartrees
 There are       30 alpha and       30 beta electrons

 Q-Chem warning in module forms1/BasisType.C, line 2236:

 You are not using the predefined 5D/6D in this basis set.

 Requested basis set is cc-pVTZ
 There are 120 shells and 326 basis functions

 Total QAlloc Memory Limit 110000 MB
 Mega-Array Size       188 MB
 MEM_STATIC part       192 MB
 Discretize the solute cavity surface with Lebedev spheres
	Using 110 Lebedev grid points for each H atom
	Using 194 Lebedev grid points for other atoms
	Atomic van der Waals radii will be scaled by 1.20
 Remove points where switching function is < 1.0e-08
 Keep 1047 surface tesserae and discard 1191 interior tesserae
 Molecular Surface Area = 157.913 Angst**2

                       Distance Matrix (Angstroms)
             C (  1)   C (  2)   C (  3)   H (  4)   C (  5)   S (  6)
   C (  2)  1.398029
   C (  3)  2.377953  1.421056
   H (  4)  2.192656  1.100348  2.218122
   C (  5)  2.543043  2.346332  1.406614  3.383646
   S (  6)  1.760291  2.587399  2.612833  3.650442  1.758555
   C (  7)  3.796953  2.573072  1.503472  2.858622  2.577339  4.077411
   H (  8)  4.063618  2.684134  2.163796  2.514445  3.477339  4.750043
   H (  9)  4.437613  3.310679  2.175416  3.630084  2.929215  4.517180
   H ( 10)  4.437658  3.310736  2.175466  3.630135  2.929268  4.517213
   C ( 11)  1.440700  2.486986  3.652210  2.849217  3.834276  2.743310
   H ( 12)  1.800341  2.274581  3.643180  2.198262  4.199071  3.468498
   H ( 13)  2.295625  3.382555  4.615935  3.594797  4.766705  3.493689
   H ( 14)  2.176470  2.907833  3.958301  3.171729  4.181005  3.262558
   H ( 15)  3.609425  3.410869  2.263980  4.406413  1.096602  2.496312
             C (  7)   H (  8)   H (  9)   H ( 10)   C ( 11)   H ( 12)
   H (  8)  1.107176
   H (  9)  1.110057  1.787657
   H ( 10)  1.110095  1.787673  1.784815
   C ( 11)  4.981476  5.084207  5.745341  5.517063
   H ( 12)  4.769174  4.639526  5.564080  5.382268  1.080035
   H ( 13)  5.939882  5.978710  6.645104  6.544015  1.079976  1.527453
   H ( 14)  5.173602  5.241981  6.072197  5.521877  1.079929  1.527497
   H ( 15)  2.977333  4.030410  3.076225  3.076213  4.861180  5.282741
             H ( 13)   H ( 14)
   H ( 14)  1.775902
   H ( 15)  5.780790  5.153486
 
 Requested basis set is rimp2-cc-pVTZ
 There are 250 shells and 848 basis functions
 A cutoff of  1.0D-10 yielded   6226 shell pairs
 There are     45658 function pairs (     58715 Cartesian)
 Smallest overlap matrix eigenvalue = 1.23E-04

 Scale SEOQF with 1.000000e-01/1.000000e-01/1.000000e-01

 Standard Electronic Orientation quadrupole field applied
 Nucleus-field energy     =     0.0000000012 hartrees
 Guess from superposition of atomic densities
 Warning:  Energy on first SCF cycle will be non-variational
 SAD guess density has 60.000000 electrons

 -----------------------------------------------------------------------
  General SCF calculation program by
  Eric Jon Sundstrom, Paul Horn, Yuezhi Mao, Dmitri Zuev, Alec White,
  David Stuck, Shaama M.S., Shane Yost, Joonho Lee, David Small,
  Daniel Levine, Susi Lehtola, Hugh Burton, Evgeny Epifanovsky,
  Bang C. Huynh
 -----------------------------------------------------------------------
 Hartree-Fock
 A restricted SCF calculation will be
 performed using DIIS
 SCF converges when DIIS error is below 1.0e-06
 ---------------------------------------
  Cycle       Energy         DIIS error
 ---------------------------------------
    1    -632.1289624546      2.92e-02  
    2    -629.3301485266      1.90e-03  
    3    -629.3994622949      6.15e-04  
    4    -629.4063330117      3.05e-04  
    5    -629.4079838310      6.18e-05  
    6    -629.4081134652      2.42e-05  
    7    -629.4081467785      1.16e-05  
    8    -629.4081567186      4.47e-06  
    9    -629.4081581918      1.89e-06  
   10    -629.4081583629      5.12e-07  Convergence criterion met
 ---------------------------------------
 SCF time:   CPU 145.14s  wall 146.00s 

************** Final PCM Free Energy Summary **************
 G_electrostatic  =      -0.00535972 hartree =      -3.36327793 kcal/mol
 G_cavitation     =       0.00000000 hartree =       0.00000000 kcal/mol
 G_dispersion     =       0.00000000 hartree =       0.00000000 kcal/mol
 G_repulsion      =       0.00000000 hartree =       0.00000000 kcal/mol
 --------------------------------------------------
 Non-electrostatic Free Energy =       0.00000000 hartree =       0.00000000 kcal/mol
 Total                         =      -0.00535972 hartree =      -3.36327793 kcal/mol
 --------------------------------------------------
 SCF Energy (H0 + V/2)                       =    -629.40815836 
 Solute Internal Energy (H0)                 =    -629.40279864 
 Total Free Energy (H0 + V/2 + non-elec)     =    -629.40815836 hartree
                                             = -394959.58049742 kcal/mol
***********************************************************

 SCF   energy in the final basis set =     -629.4081583629
 Total energy in the final basis set =     -629.4081583629


 --------------------------------------------------------------
  Generalized many-body perturbation theory program
  by Joonho Lee, Fazle Rob, Xintian Feng, Evgeny Epifanovsky

 No regularization used 
 (reg. param. = 0.0000e+00)
  (P|Q)^-1/2 Time:  CPU 0.48 s  wall 0.48 s

 In RI-MP2 calculation: 
 # of frozen core orbitals: 11

 Components of the RIMP2 correlation energy:
        aaaa    correlation energy =        -0.1462933953 a.u.
        abab    correlation energy =        -0.8891831639 a.u.
        bbbb    correlation energy =        -0.1462933953 a.u.
        non-Brillouin singles      =        -0.0000000000 a.u.
        total same-spin energy     =        -0.2925867907 a.u.
        total opposite-spin energy =        -0.8891831639 a.u.

 Total  RIMP2   correlation energy =        -1.1817699546 a.u.
        RIMP2         total energy =      -630.5899283175 a.u.

 RI-MP2 Energy Time:  CPU 11.08 s  wall 11.12 s
 
 --------------------------------------------------------------
 
                    Orbital Energies (a.u.)
 --------------------------------------------------------------
 
 Alpha MOs
 -- Occupied --
-91.9735 -11.2704 -11.2629 -11.2476 -11.2386 -11.2279 -11.2141  -8.9739
 -6.6548  -6.6541  -6.6537  -1.1637  -1.0540  -0.9996  -0.9380  -0.8842
 -0.7431  -0.7262  -0.6463  -0.5918  -0.5793  -0.5664  -0.5582  -0.5420
 -0.5128  -0.4809  -0.4664  -0.4334  -0.3375  -0.3042
 -- Virtual --
  0.0902   0.1443   0.1541   0.1773   0.1815   0.1912   0.2015   0.2307
  0.2314   0.2415   0.2524   0.2685   0.3074   0.3114   0.3436   0.3579
  0.3803   0.3899   0.4101   0.4181   0.4385   0.4547   0.4674   0.4739
  0.4837   0.4986   0.5060   0.5273   0.5405   0.5489   0.5715   0.5833
  0.5965   0.5990   0.6150   0.6283   0.6338   0.6395   0.6428   0.6470
  0.6606   0.6734   0.6814   0.6870   0.7456   0.7516   0.7744   0.7777
  0.8029   0.8159   0.8381   0.8554   0.8646   0.8853   0.9014   0.9339
  0.9524   0.9763   1.0041   1.0128   1.0233   1.0385   1.0617   1.0726
  1.0823   1.0861   1.1213   1.1581   1.1677   1.1740   1.1893   1.2029
  1.2201   1.2402   1.2504   1.2563   1.2866   1.3013   1.3059   1.3288
  1.3436   1.3565   1.3736   1.4000   1.4228   1.4336   1.4493   1.4780
  1.4947   1.5142   1.5255   1.5329   1.5462   1.5601   1.5707   1.5862
  1.5944   1.6398   1.6563   1.6724   1.6918   1.7045   1.7151   1.7420
  1.7563   1.7753   1.7996   1.8248   1.8979   1.9080   1.9333   1.9595
  1.9875   2.0371   2.0868   2.1132   2.1598   2.1850   2.2036   2.2117
  2.2571   2.2761   2.3462   2.4131   2.4621   2.4843   2.5368   2.5556
  2.5686   2.5939   2.6433   2.6567   2.6726   2.6819   2.7217   2.7481
  2.7570   2.7647   2.7739   2.7867   2.8331   2.8503   2.8730   2.8919
  2.9089   2.9278   2.9630   2.9711   2.9946   3.0265   3.0429   3.0450
  3.1079   3.1149   3.1231   3.1353   3.1559   3.1619   3.1759   3.2019
  3.2075   3.2400   3.2586   3.2609   3.2908   3.2913   3.3101   3.3328
  3.3493   3.3513   3.3791   3.3826   3.3992   3.4047   3.4246   3.4329
  3.4511   3.4673   3.4866   3.5005   3.5136   3.5237   3.5436   3.5599
  3.5899   3.5928   3.6164   3.6226   3.6389   3.6556   3.6669   3.6733
  3.7014   3.7218   3.7291   3.7484   3.7737   3.7804   3.7899   3.7951
  3.8070   3.8160   3.8469   3.8726   3.8954   3.9132   3.9354   3.9542
  3.9637   3.9839   4.0066   4.0411   4.0464   4.0684   4.0977   4.1109
  4.1372   4.1593   4.1636   4.1736   4.1859   4.2232   4.2258   4.2512
  4.2746   4.2819   4.3101   4.3343   4.3466   4.3541   4.4003   4.4080
  4.4213   4.4570   4.4640   4.4681   4.5134   4.5274   4.5469   4.5681
  4.6074   4.6424   4.6590   4.6880   4.7261   4.7438   4.7520   4.7833
  4.7976   4.8425   4.8617   4.9007   4.9172   4.9383   5.0578   5.0932
  5.1242   5.1658   5.1793   5.1848   5.2264   5.2583   5.2860   5.3076
  5.3622   5.4017   5.4062   5.4462   5.4798   5.4895   5.5464   5.5682
  5.5938   5.6173   5.6326   5.6939   5.7071   5.8171   5.8471   5.8574
  5.9116   5.9765   6.0354   6.1251   6.2270   6.2390   6.2779   6.3448
  6.4408   6.4734   9.2232  11.4947  12.8708  13.7288  14.1842  14.3569
 --------------------------------------------------------------
 
          Ground-State Mulliken Net Atomic Charges

     Atom                 Charge (a.u.)
  ----------------------------------------
      1 C                     0.018196
      2 C                    -0.256940
      3 C                     0.038185
      4 H                     0.176808
      5 C                    -0.241488
      6 S                    -0.003939
      7 C                    -0.269979
      8 H                     0.101314
      9 H                     0.106988
     10 H                     0.106727
     11 C                    -0.359335
     12 H                     0.114200
     13 H                     0.142290
     14 H                     0.133375
     15 H                     0.193598
  ----------------------------------------
  Sum of atomic charges =     0.000000

 -----------------------------------------------------------------
                    Cartesian Multipole Moments
 -----------------------------------------------------------------
    Charge (ESU x 10^10)
                -0.0000
    Dipole Moment (Debye)
         X       0.8069      Y       0.0705      Z       2.1936
       Tot       2.3384
    Quadrupole Moments (Debye-Ang)
        XX     -51.6074     XY       4.2229     YY     -44.7267
        XZ      -0.0337     YZ      -1.0563     ZZ     -48.8109
    Octopole Moments (Debye-Ang^2)
       XXX     -52.1370    XXY     -22.8919    XYY     -11.0340
       YYY     -68.7861    XXZ      -2.9533    XYZ      -1.4855
       YYZ      -1.9505    XZZ     -15.1928    YZZ     -19.5782
       ZZZ       1.1383
    Hexadecapole Moments (Debye-Ang^3)
      XXXX    -220.7713   XXXY    -136.3915   XXYY    -143.3844
      XYYY    -120.8596   YYYY    -680.5551   XXXZ     -46.1356
      XXYZ     -28.2643   XYYZ     -19.9212   YYYZ     -90.2010
      XXZZ    -120.8815   XYZZ     -39.0702   YYZZ    -195.9486
      XZZZ     -50.4273   YZZZ     -82.8467   ZZZZ    -482.0917
 -----------------------------------------------------------------
 Total job time:  160.64s(wall), 156.58s(cpu) 
 Sun Jul 10 09:40:55 2022

        *************************************************************
        *                                                           *
        *  Thank you very much for using Q-Chem.  Have a nice day.  *
        *                                                           *
        *************************************************************


remove work dirs ./qchem984719.0 -- ./qchem984719.-1
rm -rf ./qchem984719
You are running Q-Chem version: 5.4.0

#
# job setting
#
local host:  exp-4-11
current dir: /expanse/lustre/scratch/theleonzhang/temp_project/Hydrogenated_Impropers_Test
input file:  Methylthiophene_Phi_30_Theta_280_Methylthiophene_Hydrogenated_Improper.qcin
output file: 
nprocs     : 0
nthreads   : 1
#
# qchem installation setting
#
QC:          /cm/shared/apps/spack/cpu/opt/spack/linux-centos8-zen2/gcc-10.2.0/qchem-5.4-akfmr7b3t57bfs6qan3padb2wnb2i7cl
QCAUX:       /cm/shared/apps/spack/cpu/opt/spack/linux-centos8-zen2/gcc-10.2.0/qchem-5.4-akfmr7b3t57bfs6qan3padb2wnb2i7cl/qcaux
QCPROG:      /cm/shared/apps/spack/cpu/opt/spack/linux-centos8-zen2/gcc-10.2.0/qchem-5.4-akfmr7b3t57bfs6qan3padb2wnb2i7cl/exe/qcprog.exe_s
QCPROG_S:    /cm/shared/apps/spack/cpu/opt/spack/linux-centos8-zen2/gcc-10.2.0/qchem-5.4-akfmr7b3t57bfs6qan3padb2wnb2i7cl/exe/qcprog.exe_s
PARALLEL:    -DSERIAL
QCMPI:       mpich
#
# qchem directory setting
#
qcrun:       qchem3445889
QCSCRATCH:   .
QCLOCALSCR:  
QCTMPDIR:    .
QCFILEPREF:  ./qchem3445889
QCSAVEDIR:   
workdirs:    ./qchem3445889
workdir0:    ./qchem3445889
partmpdirs =  
#
# parallel setting
#
QCRSH:           ssh
QCMPI:           mpich
QCMPIRUN:        /cm/shared/apps/spack/cpu/opt/spack/linux-centos8-zen2/gcc-10.2.0/qchem-5.4-akfmr7b3t57bfs6qan3padb2wnb2i7cl/bin/mpi/mpirun_qchem
QCMACHINEFILE:   ./qchem3445889/hostfile

#
# env setting
#
exported envs:   QC QCAUX QCSCRATCH QCRUNNAME QCFILEPREF QCPROG QCPROG_S GUIFILE

Running Job 1 of 1 Methylthiophene_Phi_30_Theta_280_Methylthiophene_Hydrogenated_Improper.qcin
qchem Methylthiophene_Phi_30_Theta_280_Methylthiophene_Hydrogenated_Improper.qcin_3445889.0 ./qchem3445889/ 0
/cm/shared/apps/spack/cpu/opt/spack/linux-centos8-zen2/gcc-10.2.0/qchem-5.4-akfmr7b3t57bfs6qan3padb2wnb2i7cl/exe/qcprog.exe_s Methylthiophene_Phi_30_Theta_280_Methylthiophene_Hydrogenated_Improper.qcin_3445889.0 ./qchem3445889/
                  Welcome to Q-Chem
     A Quantum Leap Into The Future Of Chemistry


 Q-Chem 5.4, Q-Chem, Inc., Pleasanton, CA (2021)

 License issued to: University of California, San Diego (site)

 E. Epifanovsky,  A. T. B. Gilbert,  Xintian Feng,  Joonho Lee,  Yuezhi Mao,  
 N. Mardirossian,  P. Pokhilko,  A. White,  M. Wormit,  M. P. Coons,  
 A. L. Dempwolff,  Zhengting Gan,  D. Hait,  P. R. Horn,  L. D. Jacobson,  
 I. Kaliman,  J. Kussmann,  A. W. Lange,  Ka Un Lao,  D. S. Levine,  Jie Liu,  
 S. C. McKenzie,  A. F. Morrison,  K. Nanda,  F. Plasser,  D. R. Rehn,  
 M. L. Vidal,  Zhi-Qiang You,  Ying Zhu,  B. Alam,  B. Albrecht,  
 A. Aldossary,  E. Alguire,  J. H. Andersen,  D. Barton,  K. Begam,  A. Behn,  
 Y. A. Bernard,  E. J. Berquist,  H. Burton,  A. Carreras,  K. Carter-Fenk,  
 R. Chakraborty,  A. D. Chien,  K. D. Closser,  V. Cofer-Shabica,  
 S. Dasgupta,  Jia Deng,  M. de Wergifosse,  M. Diedenhofen,  Hainam Do,  
 S. Ehlert,  Po-Tung Fang,  S. Fatehi,  Qingguo Feng,  J. Gayvert,  
 Qinghui Ge,  G. Gidofalvi,  M. Goldey,  J. Gomes,  C. Gonzalez-Espinoza,  
 S. Gulania,  A. Gunina,  M. W. D. Hanson-Heine,  P. H. P. Harbach,  
 A. W. Hauser,  M. F. Herbst,  M. Hernandez Vera,  M. Hodecker,  
 Z. C. Holden,  S. Houck,  Xunkun Huang,  Kerwin Hui,  B. C. Huynh,  
 M. Ivanov,  Hyunjun Ji,  Hanjie Jiang,  B. Kaduk,  S. Kaehler,  
 K. Khistyaev,  Jaehoon Kim,  P. Klunzinger,  Z. Koczor-Benda,  
 Joong Hoon Koh,  D. Kosenkov,  L. Koulias,  T. Kowalczyk,  C. M. Krauter,  
 K. Kue,  A. Kunitsa,  T. Kus,  A. Landau,  K. V. Lawler,  D. Lefrancois,  
 S. Lehtola,  Rain Li,  Yi-Pei Li,  Jiashu Liang,  M. Liebenthal,  
 Hung-Hsuan Lin,  You-Sheng Lin,  Fenglai Liu,  Kuan-Yu Liu,  
 M. Loipersberger,  A. Luenser,  A. Manjanath,  P. Manohar,  E. Mansoor,  
 S. F. Manzer,  Shan-Ping Mao,  A. V. Marenich,  T. Markovich,  S. Mason,  
 S. A. Maurer,  P. F. McLaughlin,  M. F. S. J. Menger,  J.-M. Mewes,  
 S. A. Mewes,  P. Morgante,  J. W. Mullinax,  T. S. Nguyen-Beck,  
 K. J. Oosterbaan,  G. Paran,  Alexander C. Paul,  Suranjan K. Paul,  
 F. Pavosevic,  Zheng Pei,  S. Prager,  E. I. Proynov,  E. Ramos,  B. Rana,  
 A. E. Rask,  A. Rettig,  R. M. Richard,  F. Rob,  E. Rossomme,  T. Scheele,  
 M. Scheurer,  M. Schneider,  N. Sergueev,  S. M. Sharada,  W. Skomorowski,  
 D. W. Small,  C. J. Stein,  Yu-Chuan Su,  E. J. Sundstrom,  Zhen Tao,  
 J. Thirman,  T. Tsuchimochi,  N. M. Tubman,  S. P. Veccham,  O. Vydrov,  
 J. Wenzel,  J. Witte,  A. Yamada,  Kun Yao,  S. Yeganeh,  S. R. Yost,  
 A. Zech,  Igor Ying Zhang,  Xing Zhang,  Yu Zhang,  D. Zuev,  
 A. Aspuru-Guzik,  A. T. Bell,  N. A. Besley,  K. B. Bravaya,  B. R. Brooks,  
 D. Casanova,  Jeng-Da Chai,  S. Coriani,  C. J. Cramer,  
 A. E. DePrince, III,  R. A. DiStasio Jr.,  A. Dreuw,  B. D. Dunietz,  
 T. R. Furlani,  W. A. Goddard III,  S. Grimme,  S. Hammes-Schiffer,  
 T. Head-Gordon,  W. J. Hehre,  Chao-Ping Hsu,  T.-C. Jagau,  Yousung Jung,  
 A. Klamt,  Jing Kong,  D. S. Lambrecht,  WanZhen Liang,  N. J. Mayhall,  
 C. W. McCurdy,  J. B. Neaton,  C. Ochsenfeld,  J. A. Parkhill,  R. Peverati,  
 V. A. Rassolov,  Yihan Shao,  L. V. Slipchenko,  T. Stauch,  R. P. Steele,  
 J. E. Subotnik,  A. J. W. Thom,  A. Tkatchenko,  D. G. Truhlar,  
 T. Van Voorhis,  T. A. Wesolowski,  K. B. Whaley,  H. L. Woodcock III,  
 P. M. Zimmerman,  S. Faraji,  P. M. W. Gill,  M. Head-Gordon,  
 J. M. Herbert,  A. I. Krylov

 Contributors to earlier versions of Q-Chem not listed above: 
 R. D. Adamson,  B. Austin,  R. Baer,  J. Baker,  G. J. O. Beran,  
 K. Brandhorst,  S. T. Brown,  E. F. C. Byrd,  A. K. Chakraborty,  
 G. K. L. Chan,  Chun-Min Chang,  Yunqing Chen,  C.-L. Cheng,  
 Siu Hung Chien,  D. M. Chipman,  D. L. Crittenden,  H. Dachsel,  
 R. J. Doerksen,  A. D. Dutoi,  R. G. Edgar,  J. Fosso-Tande,  
 L. Fusti-Molnar,  D. Ghosh,  A. Ghysels,  A. Golubeva-Zadorozhnaya,  
 J. Gonthier,  M. S. Gordon,  S. R. Gwaltney,  G. Hawkins,  J. E. Herr,  
 A. Heyden,  S. Hirata,  E. G. Hohenstein,  G. Kedziora,  F. J. Keil,  
 C. Kelley,  Jihan Kim,  R. A. King,  R. Z. Khaliullin,  P. P. Korambath,  
 W. Kurlancheek,  A. Laurent,  A. M. Lee,  M. S. Lee,  S. V. Levchenko,  
 Ching Yeh Lin,  D. Liotard,  E. Livshits,  R. C. Lochan,  I. Lotan,  
 L. A. Martinez-Martinez,  P. E. Maslen,  N. Nair,  D. P. O'Neill,  
 D. Neuhauser,  E. Neuscamman,  C. M. Oana,  R. Olivares-Amaya,  R. Olson,  
 T. M. Perrine,  B. Peters,  P. A. Pieniazek,  A. Prociuk,  Y. M. Rhee,  
 J. Ritchie,  M. A. Rohrdanz,  E. Rosta,  N. J. Russ,  H. F. Schaefer III,  
 M. W. Schmidt,  N. E. Schultz,  S. Sharma,  N. Shenvi,  C. D. Sherrill,  
 A. C. Simmonett,  A. Sodt,  T. Stein,  D. Stuck,  K. S. Thanthiriwatte,  
 V. Vanovschi,  L. Vogt,  Tao Wang,  A. Warshel,  M. A. Watson,  
 C. F. Williams,  Q. Wu,  X. Xu,  Jun Yang,  W. Zhang,  Yan Zhao

 Please cite Q-Chem as follows:
 Y. Shao et al., Mol. Phys. 113, 184-215 (2015)
 DOI: 10.1080/00268976.2014.952696

 Q-Chem 5.4.0 for Intel X86 EM64T Linux

 Parts of Q-Chem use Armadillo 9.800.1 (Horizon Scraper).
 http://arma.sourceforge.net/

 Q-Chem begins on Sun Jul 10 10:19:57 2022  

 Host: 
0

     Scratch files written to ./qchem3445889//
 May1621 |scratch|qcdevops|jenkins|workspace|build_RNUM    
 Processing $rem in /cm/shared/apps/spack/cpu/opt/spack/linux-centos8-zen2/gcc-10.2.0/qchem-5.4-akfmr7b3t57bfs6qan3padb2wnb2i7cl/config/preferences:
 Processing $rem in /home/theleonzhang/.qchemrc:
 Symmetry turned off for PCM/SM12/SMD calculation
 Core orbitals will be frozen

 Checking the input file for inconsistencies... 	...done.

--------------------------------------------------------------
User input:
--------------------------------------------------------------
$molecule
0 1
C	-0.338900	-0.485421	0.010154
C	0.092900	0.262479	1.109554
C	0.784900	1.460979	0.786854
H	-0.091500	-0.056921	2.146254
C	0.895200	1.652079	-0.602346
S	0.132300	0.330679	-1.476646
C	1.328800	2.402979	1.824754
H	1.116000	2.034379	2.846854
H	0.883100	3.415779	1.736354
H	2.428800	2.523379	1.736354
C	-0.338900	-1.926121	0.010154
H	-0.526600	-1.925821	1.073754
H	-1.145600	-2.629921	-0.132146
H	0.593800	-2.445021	0.174654
H	1.369900	2.474079	-1.151446
$end

$rem
JOBTYPE		SP
EXCHANGE	HF
CORRELATION	pRIMP2
BASIS		cc-pvtz
METHOD		rimp2
AUX_BASIS	rimp2-cc-pvtz
SOLVENT_METHOD	PCM
PURECART	11111
SYMMETRY	false
MEM_TOTAL	110000
SCF_CONVERGENCE = 6
THRESH=10
$end



$solvent
dielectric 4.90
$end
--------------------------------------------------------------
 ----------------------------------------------------------------
             Standard Nuclear Orientation (Angstroms)
    I     Atom           X                Y                Z
 ----------------------------------------------------------------
    1      C      -0.3389000000    -0.4854210000     0.0101540000
    2      C       0.0929000000     0.2624790000     1.1095540000
    3      C       0.7849000000     1.4609790000     0.7868540000
    4      H      -0.0915000000    -0.0569210000     2.1462540000
    5      C       0.8952000000     1.6520790000    -0.6023460000
    6      S       0.1323000000     0.3306790000    -1.4766460000
    7      C       1.3288000000     2.4029790000     1.8247540000
    8      H       1.1160000000     2.0343790000     2.8468540000
    9      H       0.8831000000     3.4157790000     1.7363540000
   10      H       2.4288000000     2.5233790000     1.7363540000
   11      C      -0.3389000000    -1.9261210000     0.0101540000
   12      H      -0.5266000000    -1.9258210000     1.0737540000
   13      H      -1.1456000000    -2.6299210000    -0.1321460000
   14      H       0.5938000000    -2.4450210000     0.1746540000
   15      H       1.3699000000     2.4740790000    -1.1514460000
 ----------------------------------------------------------------
 Nuclear Repulsion Energy =         345.82912247 hartrees
 There are       30 alpha and       30 beta electrons

 Q-Chem warning in module forms1/BasisType.C, line 2236:

 You are not using the predefined 5D/6D in this basis set.

 Requested basis set is cc-pVTZ
 There are 120 shells and 326 basis functions

 Total QAlloc Memory Limit 110000 MB
 Mega-Array Size       188 MB
 MEM_STATIC part       192 MB
 Discretize the solute cavity surface with Lebedev spheres
	Using 110 Lebedev grid points for each H atom
	Using 194 Lebedev grid points for other atoms
	Atomic van der Waals radii will be scaled by 1.20
 Remove points where switching function is < 1.0e-08
 Keep 1047 surface tesserae and discard 1191 interior tesserae
 Molecular Surface Area = 157.913 Angst**2

                       Distance Matrix (Angstroms)
             C (  1)   C (  2)   C (  3)   H (  4)   C (  5)   S (  6)
   C (  2)  1.398029
   C (  3)  2.377953  1.421056
   H (  4)  2.192656  1.100348  2.218122
   C (  5)  2.543043  2.346332  1.406614  3.383646
   S (  6)  1.760291  2.587399  2.612833  3.650442  1.758555
   C (  7)  3.796953  2.573072  1.503472  2.858622  2.577339  4.077411
   H (  8)  4.063618  2.684134  2.163796  2.514445  3.477339  4.750043
   H (  9)  4.437613  3.310679  2.175416  3.630084  2.929215  4.517180
   H ( 10)  4.437658  3.310736  2.175466  3.630135  2.929268  4.517213
   C ( 11)  1.440700  2.486986  3.652210  2.849217  3.834276  2.743310
   H ( 12)  1.800341  2.274581  3.643180  2.198262  4.199071  3.468498
   H ( 13)  2.295625  3.382555  4.615935  3.594797  4.766705  3.493689
   H ( 14)  2.176470  2.907833  3.958301  3.171729  4.181005  3.262558
   H ( 15)  3.609425  3.410869  2.263980  4.406413  1.096602  2.496312
             C (  7)   H (  8)   H (  9)   H ( 10)   C ( 11)   H ( 12)
   H (  8)  1.107176
   H (  9)  1.110057  1.787657
   H ( 10)  1.110095  1.787673  1.784815
   C ( 11)  4.981476  5.084207  5.745341  5.517063
   H ( 12)  4.769174  4.639526  5.564080  5.382268  1.080035
   H ( 13)  5.939882  5.978710  6.645104  6.544015  1.079976  1.527453
   H ( 14)  5.173602  5.241981  6.072197  5.521877  1.079929  1.527497
   H ( 15)  2.977333  4.030410  3.076225  3.076213  4.861180  5.282741
             H ( 13)   H ( 14)
   H ( 14)  1.775902
   H ( 15)  5.780790  5.153486
 
 Requested basis set is rimp2-cc-pVTZ
 There are 250 shells and 848 basis functions
 A cutoff of  1.0D-10 yielded   6226 shell pairs
 There are     45658 function pairs (     58715 Cartesian)
 Smallest overlap matrix eigenvalue = 1.23E-04

 Scale SEOQF with 1.000000e-01/1.000000e-01/1.000000e-01

 Standard Electronic Orientation quadrupole field applied
 Nucleus-field energy     =     0.0000000012 hartrees
 Guess from superposition of atomic densities
 Warning:  Energy on first SCF cycle will be non-variational
 SAD guess density has 60.000000 electrons

 -----------------------------------------------------------------------
  General SCF calculation program by
  Eric Jon Sundstrom, Paul Horn, Yuezhi Mao, Dmitri Zuev, Alec White,
  David Stuck, Shaama M.S., Shane Yost, Joonho Lee, David Small,
  Daniel Levine, Susi Lehtola, Hugh Burton, Evgeny Epifanovsky,
  Bang C. Huynh
 -----------------------------------------------------------------------
 Hartree-Fock
 A restricted SCF calculation will be
 performed using DIIS
 SCF converges when DIIS error is below 1.0e-06
 ---------------------------------------
  Cycle       Energy         DIIS error
 ---------------------------------------
    1    -632.1289624546      2.92e-02  
    2    -629.3301485266      1.90e-03  
    3    -629.3994622949      6.15e-04  
    4    -629.4063330117      3.05e-04  
    5    -629.4079838310      6.18e-05  
    6    -629.4081134652      2.42e-05  
    7    -629.4081467785      1.16e-05  
    8    -629.4081567186      4.47e-06  
    9    -629.4081581918      1.89e-06  
   10    -629.4081583629      5.12e-07  Convergence criterion met
 ---------------------------------------
 SCF time:   CPU 145.15s  wall 146.00s 

************** Final PCM Free Energy Summary **************
 G_electrostatic  =      -0.00535972 hartree =      -3.36327793 kcal/mol
 G_cavitation     =       0.00000000 hartree =       0.00000000 kcal/mol
 G_dispersion     =       0.00000000 hartree =       0.00000000 kcal/mol
 G_repulsion      =       0.00000000 hartree =       0.00000000 kcal/mol
 --------------------------------------------------
 Non-electrostatic Free Energy =       0.00000000 hartree =       0.00000000 kcal/mol
 Total                         =      -0.00535972 hartree =      -3.36327793 kcal/mol
 --------------------------------------------------
 SCF Energy (H0 + V/2)                       =    -629.40815836 
 Solute Internal Energy (H0)                 =    -629.40279864 
 Total Free Energy (H0 + V/2 + non-elec)     =    -629.40815836 hartree
                                             = -394959.58049742 kcal/mol
***********************************************************

 SCF   energy in the final basis set =     -629.4081583629
 Total energy in the final basis set =     -629.4081583629


 --------------------------------------------------------------
  Generalized many-body perturbation theory program
  by Joonho Lee, Fazle Rob, Xintian Feng, Evgeny Epifanovsky

 No regularization used 
 (reg. param. = 0.0000e+00)
  (P|Q)^-1/2 Time:  CPU 0.48 s  wall 0.48 s

 In RI-MP2 calculation: 
 # of frozen core orbitals: 11

 Components of the RIMP2 correlation energy:
        aaaa    correlation energy =        -0.1462933953 a.u.
        abab    correlation energy =        -0.8891831639 a.u.
        bbbb    correlation energy =        -0.1462933953 a.u.
        non-Brillouin singles      =        -0.0000000000 a.u.
        total same-spin energy     =        -0.2925867907 a.u.
        total opposite-spin energy =        -0.8891831639 a.u.

 Total  RIMP2   correlation energy =        -1.1817699546 a.u.
        RIMP2         total energy =      -630.5899283175 a.u.

 RI-MP2 Energy Time:  CPU 11.09 s  wall 11.11 s
 
 --------------------------------------------------------------
 
                    Orbital Energies (a.u.)
 --------------------------------------------------------------
 
 Alpha MOs
 -- Occupied --
-91.9735 -11.2704 -11.2629 -11.2476 -11.2386 -11.2279 -11.2141  -8.9739
 -6.6548  -6.6541  -6.6537  -1.1637  -1.0540  -0.9996  -0.9380  -0.8842
 -0.7431  -0.7262  -0.6463  -0.5918  -0.5793  -0.5664  -0.5582  -0.5420
 -0.5128  -0.4809  -0.4664  -0.4334  -0.3375  -0.3042
 -- Virtual --
  0.0902   0.1443   0.1541   0.1773   0.1815   0.1912   0.2015   0.2307
  0.2314   0.2415   0.2524   0.2685   0.3074   0.3114   0.3436   0.3579
  0.3803   0.3899   0.4101   0.4181   0.4385   0.4547   0.4674   0.4739
  0.4837   0.4986   0.5060   0.5273   0.5405   0.5489   0.5715   0.5833
  0.5965   0.5990   0.6150   0.6283   0.6338   0.6395   0.6428   0.6470
  0.6606   0.6734   0.6814   0.6870   0.7456   0.7516   0.7744   0.7777
  0.8029   0.8159   0.8381   0.8554   0.8646   0.8853   0.9014   0.9339
  0.9524   0.9763   1.0041   1.0128   1.0233   1.0385   1.0617   1.0726
  1.0823   1.0861   1.1213   1.1581   1.1677   1.1740   1.1893   1.2029
  1.2201   1.2402   1.2504   1.2563   1.2866   1.3013   1.3059   1.3288
  1.3436   1.3565   1.3736   1.4000   1.4228   1.4336   1.4493   1.4780
  1.4947   1.5142   1.5255   1.5329   1.5462   1.5601   1.5707   1.5862
  1.5944   1.6398   1.6563   1.6724   1.6918   1.7045   1.7151   1.7420
  1.7563   1.7753   1.7996   1.8248   1.8979   1.9080   1.9333   1.9595
  1.9875   2.0371   2.0868   2.1132   2.1598   2.1850   2.2036   2.2117
  2.2571   2.2761   2.3462   2.4131   2.4621   2.4843   2.5368   2.5556
  2.5686   2.5939   2.6433   2.6567   2.6726   2.6819   2.7217   2.7481
  2.7570   2.7647   2.7739   2.7867   2.8331   2.8503   2.8730   2.8919
  2.9089   2.9278   2.9630   2.9711   2.9946   3.0265   3.0429   3.0450
  3.1079   3.1149   3.1231   3.1353   3.1559   3.1619   3.1759   3.2019
  3.2075   3.2400   3.2586   3.2609   3.2908   3.2913   3.3101   3.3328
  3.3493   3.3513   3.3791   3.3826   3.3992   3.4047   3.4246   3.4329
  3.4511   3.4673   3.4866   3.5005   3.5136   3.5237   3.5436   3.5599
  3.5899   3.5928   3.6164   3.6226   3.6389   3.6556   3.6669   3.6733
  3.7014   3.7218   3.7291   3.7484   3.7737   3.7804   3.7899   3.7951
  3.8070   3.8160   3.8469   3.8726   3.8954   3.9132   3.9354   3.9542
  3.9637   3.9839   4.0066   4.0411   4.0464   4.0684   4.0977   4.1109
  4.1372   4.1593   4.1636   4.1736   4.1859   4.2232   4.2258   4.2512
  4.2746   4.2819   4.3101   4.3343   4.3466   4.3541   4.4003   4.4080
  4.4213   4.4570   4.4640   4.4681   4.5134   4.5274   4.5469   4.5681
  4.6074   4.6424   4.6590   4.6880   4.7261   4.7438   4.7520   4.7833
  4.7976   4.8425   4.8617   4.9007   4.9172   4.9383   5.0578   5.0932
  5.1242   5.1658   5.1793   5.1848   5.2264   5.2583   5.2860   5.3076
  5.3622   5.4017   5.4062   5.4462   5.4798   5.4895   5.5464   5.5682
  5.5938   5.6173   5.6326   5.6939   5.7071   5.8171   5.8471   5.8574
  5.9116   5.9765   6.0354   6.1251   6.2270   6.2390   6.2779   6.3448
  6.4408   6.4734   9.2232  11.4947  12.8708  13.7288  14.1842  14.3569
 --------------------------------------------------------------
 
          Ground-State Mulliken Net Atomic Charges

     Atom                 Charge (a.u.)
  ----------------------------------------
      1 C                     0.018196
      2 C                    -0.256940
      3 C                     0.038185
      4 H                     0.176808
      5 C                    -0.241488
      6 S                    -0.003939
      7 C                    -0.269979
      8 H                     0.101314
      9 H                     0.106988
     10 H                     0.106727
     11 C                    -0.359335
     12 H                     0.114200
     13 H                     0.142290
     14 H                     0.133375
     15 H                     0.193598
  ----------------------------------------
  Sum of atomic charges =     0.000000

 -----------------------------------------------------------------
                    Cartesian Multipole Moments
 -----------------------------------------------------------------
    Charge (ESU x 10^10)
                -0.0000
    Dipole Moment (Debye)
         X       0.8069      Y       0.0705      Z       2.1936
       Tot       2.3384
    Quadrupole Moments (Debye-Ang)
        XX     -51.6074     XY       4.2229     YY     -44.7267
        XZ      -0.0337     YZ      -1.0563     ZZ     -48.8109
    Octopole Moments (Debye-Ang^2)
       XXX     -52.1370    XXY     -22.8919    XYY     -11.0340
       YYY     -68.7861    XXZ      -2.9533    XYZ      -1.4855
       YYZ      -1.9505    XZZ     -15.1928    YZZ     -19.5782
       ZZZ       1.1383
    Hexadecapole Moments (Debye-Ang^3)
      XXXX    -220.7713   XXXY    -136.3915   XXYY    -143.3844
      XYYY    -120.8596   YYYY    -680.5551   XXXZ     -46.1356
      XXYZ     -28.2643   XYYZ     -19.9212   YYYZ     -90.2010
      XXZZ    -120.8815   XYZZ     -39.0702   YYZZ    -195.9486
      XZZZ     -50.4273   YZZZ     -82.8467   ZZZZ    -482.0917
 -----------------------------------------------------------------
 Total job time:  157.47s(wall), 156.59s(cpu) 
 Sun Jul 10 10:22:35 2022

        *************************************************************
        *                                                           *
        *  Thank you very much for using Q-Chem.  Have a nice day.  *
        *                                                           *
        *************************************************************


remove work dirs ./qchem3445889.0 -- ./qchem3445889.-1
rm -rf ./qchem3445889
