You are running Q-Chem version: 5.4.0

#
# job setting
#
local host:  exp-2-28
current dir: /expanse/lustre/scratch/theleonzhang/temp_project/Hydrogenated_Impropers_Test
input file:  Methylthiophene_Phi_50_Theta_120_Methylthiophene_Hydrogenated_Improper.qcin
output file: 
nprocs     : 0
nthreads   : 1
#
# qchem installation setting
#
QC:          /cm/shared/apps/spack/cpu/opt/spack/linux-centos8-zen2/gcc-10.2.0/qchem-5.4-akfmr7b3t57bfs6qan3padb2wnb2i7cl
QCAUX:       /cm/shared/apps/spack/cpu/opt/spack/linux-centos8-zen2/gcc-10.2.0/qchem-5.4-akfmr7b3t57bfs6qan3padb2wnb2i7cl/qcaux
QCPROG:      /cm/shared/apps/spack/cpu/opt/spack/linux-centos8-zen2/gcc-10.2.0/qchem-5.4-akfmr7b3t57bfs6qan3padb2wnb2i7cl/exe/qcprog.exe_s
QCPROG_S:    /cm/shared/apps/spack/cpu/opt/spack/linux-centos8-zen2/gcc-10.2.0/qchem-5.4-akfmr7b3t57bfs6qan3padb2wnb2i7cl/exe/qcprog.exe_s
PARALLEL:    -DSERIAL
QCMPI:       mpich
#
# qchem directory setting
#
qcrun:       qchem1895330
QCSCRATCH:   .
QCLOCALSCR:  
QCTMPDIR:    .
QCFILEPREF:  ./qchem1895330
QCSAVEDIR:   
workdirs:    ./qchem1895330
workdir0:    ./qchem1895330
partmpdirs =  
#
# parallel setting
#
QCRSH:           ssh
QCMPI:           mpich
QCMPIRUN:        /cm/shared/apps/spack/cpu/opt/spack/linux-centos8-zen2/gcc-10.2.0/qchem-5.4-akfmr7b3t57bfs6qan3padb2wnb2i7cl/bin/mpi/mpirun_qchem
QCMACHINEFILE:   ./qchem1895330/hostfile

#
# env setting
#
exported envs:   QC QCAUX QCSCRATCH QCRUNNAME QCFILEPREF QCPROG QCPROG_S GUIFILE

Running Job 1 of 1 Methylthiophene_Phi_50_Theta_120_Methylthiophene_Hydrogenated_Improper.qcin
qchem Methylthiophene_Phi_50_Theta_120_Methylthiophene_Hydrogenated_Improper.qcin_1895330.0 ./qchem1895330/ 0
/cm/shared/apps/spack/cpu/opt/spack/linux-centos8-zen2/gcc-10.2.0/qchem-5.4-akfmr7b3t57bfs6qan3padb2wnb2i7cl/exe/qcprog.exe_s Methylthiophene_Phi_50_Theta_120_Methylthiophene_Hydrogenated_Improper.qcin_1895330.0 ./qchem1895330/
                  Welcome to Q-Chem
     A Quantum Leap Into The Future Of Chemistry


 Q-Chem 5.4, Q-Chem, Inc., Pleasanton, CA (2021)

 License issued to: University of California, San Diego (site)

 E. Epifanovsky,  A. T. B. Gilbert,  Xintian Feng,  Joonho Lee,  Yuezhi Mao,  
 N. Mardirossian,  P. Pokhilko,  A. White,  M. Wormit,  M. P. Coons,  
 A. L. Dempwolff,  Zhengting Gan,  D. Hait,  P. R. Horn,  L. D. Jacobson,  
 I. Kaliman,  J. Kussmann,  A. W. Lange,  Ka Un Lao,  D. S. Levine,  Jie Liu,  
 S. C. McKenzie,  A. F. Morrison,  K. Nanda,  F. Plasser,  D. R. Rehn,  
 M. L. Vidal,  Zhi-Qiang You,  Ying Zhu,  B. Alam,  B. Albrecht,  
 A. Aldossary,  E. Alguire,  J. H. Andersen,  D. Barton,  K. Begam,  A. Behn,  
 Y. A. Bernard,  E. J. Berquist,  H. Burton,  A. Carreras,  K. Carter-Fenk,  
 R. Chakraborty,  A. D. Chien,  K. D. Closser,  V. Cofer-Shabica,  
 S. Dasgupta,  Jia Deng,  M. de Wergifosse,  M. Diedenhofen,  Hainam Do,  
 S. Ehlert,  Po-Tung Fang,  S. Fatehi,  Qingguo Feng,  J. Gayvert,  
 Qinghui Ge,  G. Gidofalvi,  M. Goldey,  J. Gomes,  C. Gonzalez-Espinoza,  
 S. Gulania,  A. Gunina,  M. W. D. Hanson-Heine,  P. H. P. Harbach,  
 A. W. Hauser,  M. F. Herbst,  M. Hernandez Vera,  M. Hodecker,  
 Z. C. Holden,  S. Houck,  Xunkun Huang,  Kerwin Hui,  B. C. Huynh,  
 M. Ivanov,  Hyunjun Ji,  Hanjie Jiang,  B. Kaduk,  S. Kaehler,  
 K. Khistyaev,  Jaehoon Kim,  P. Klunzinger,  Z. Koczor-Benda,  
 Joong Hoon Koh,  D. Kosenkov,  L. Koulias,  T. Kowalczyk,  C. M. Krauter,  
 K. Kue,  A. Kunitsa,  T. Kus,  A. Landau,  K. V. Lawler,  D. Lefrancois,  
 S. Lehtola,  Rain Li,  Yi-Pei Li,  Jiashu Liang,  M. Liebenthal,  
 Hung-Hsuan Lin,  You-Sheng Lin,  Fenglai Liu,  Kuan-Yu Liu,  
 M. Loipersberger,  A. Luenser,  A. Manjanath,  P. Manohar,  E. Mansoor,  
 S. F. Manzer,  Shan-Ping Mao,  A. V. Marenich,  T. Markovich,  S. Mason,  
 S. A. Maurer,  P. F. McLaughlin,  M. F. S. J. Menger,  J.-M. Mewes,  
 S. A. Mewes,  P. Morgante,  J. W. Mullinax,  T. S. Nguyen-Beck,  
 K. J. Oosterbaan,  G. Paran,  Alexander C. Paul,  Suranjan K. Paul,  
 F. Pavosevic,  Zheng Pei,  S. Prager,  E. I. Proynov,  E. Ramos,  B. Rana,  
 A. E. Rask,  A. Rettig,  R. M. Richard,  F. Rob,  E. Rossomme,  T. Scheele,  
 M. Scheurer,  M. Schneider,  N. Sergueev,  S. M. Sharada,  W. Skomorowski,  
 D. W. Small,  C. J. Stein,  Yu-Chuan Su,  E. J. Sundstrom,  Zhen Tao,  
 J. Thirman,  T. Tsuchimochi,  N. M. Tubman,  S. P. Veccham,  O. Vydrov,  
 J. Wenzel,  J. Witte,  A. Yamada,  Kun Yao,  S. Yeganeh,  S. R. Yost,  
 A. Zech,  Igor Ying Zhang,  Xing Zhang,  Yu Zhang,  D. Zuev,  
 A. Aspuru-Guzik,  A. T. Bell,  N. A. Besley,  K. B. Bravaya,  B. R. Brooks,  
 D. Casanova,  Jeng-Da Chai,  S. Coriani,  C. J. Cramer,  
 A. E. DePrince, III,  R. A. DiStasio Jr.,  A. Dreuw,  B. D. Dunietz,  
 T. R. Furlani,  W. A. Goddard III,  S. Grimme,  S. Hammes-Schiffer,  
 T. Head-Gordon,  W. J. Hehre,  Chao-Ping Hsu,  T.-C. Jagau,  Yousung Jung,  
 A. Klamt,  Jing Kong,  D. S. Lambrecht,  WanZhen Liang,  N. J. Mayhall,  
 C. W. McCurdy,  J. B. Neaton,  C. Ochsenfeld,  J. A. Parkhill,  R. Peverati,  
 V. A. Rassolov,  Yihan Shao,  L. V. Slipchenko,  T. Stauch,  R. P. Steele,  
 J. E. Subotnik,  A. J. W. Thom,  A. Tkatchenko,  D. G. Truhlar,  
 T. Van Voorhis,  T. A. Wesolowski,  K. B. Whaley,  H. L. Woodcock III,  
 P. M. Zimmerman,  S. Faraji,  P. M. W. Gill,  M. Head-Gordon,  
 J. M. Herbert,  A. I. Krylov

 Contributors to earlier versions of Q-Chem not listed above: 
 R. D. Adamson,  B. Austin,  R. Baer,  J. Baker,  G. J. O. Beran,  
 K. Brandhorst,  S. T. Brown,  E. F. C. Byrd,  A. K. Chakraborty,  
 G. K. L. Chan,  Chun-Min Chang,  Yunqing Chen,  C.-L. Cheng,  
 Siu Hung Chien,  D. M. Chipman,  D. L. Crittenden,  H. Dachsel,  
 R. J. Doerksen,  A. D. Dutoi,  R. G. Edgar,  J. Fosso-Tande,  
 L. Fusti-Molnar,  D. Ghosh,  A. Ghysels,  A. Golubeva-Zadorozhnaya,  
 J. Gonthier,  M. S. Gordon,  S. R. Gwaltney,  G. Hawkins,  J. E. Herr,  
 A. Heyden,  S. Hirata,  E. G. Hohenstein,  G. Kedziora,  F. J. Keil,  
 C. Kelley,  Jihan Kim,  R. A. King,  R. Z. Khaliullin,  P. P. Korambath,  
 W. Kurlancheek,  A. Laurent,  A. M. Lee,  M. S. Lee,  S. V. Levchenko,  
 Ching Yeh Lin,  D. Liotard,  E. Livshits,  R. C. Lochan,  I. Lotan,  
 L. A. Martinez-Martinez,  P. E. Maslen,  N. Nair,  D. P. O'Neill,  
 D. Neuhauser,  E. Neuscamman,  C. M. Oana,  R. Olivares-Amaya,  R. Olson,  
 T. M. Perrine,  B. Peters,  P. A. Pieniazek,  A. Prociuk,  Y. M. Rhee,  
 J. Ritchie,  M. A. Rohrdanz,  E. Rosta,  N. J. Russ,  H. F. Schaefer III,  
 M. W. Schmidt,  N. E. Schultz,  S. Sharma,  N. Shenvi,  C. D. Sherrill,  
 A. C. Simmonett,  A. Sodt,  T. Stein,  D. Stuck,  K. S. Thanthiriwatte,  
 V. Vanovschi,  L. Vogt,  Tao Wang,  A. Warshel,  M. A. Watson,  
 C. F. Williams,  Q. Wu,  X. Xu,  Jun Yang,  W. Zhang,  Yan Zhao

 Please cite Q-Chem as follows:
 Y. Shao et al., Mol. Phys. 113, 184-215 (2015)
 DOI: 10.1080/00268976.2014.952696

 Q-Chem 5.4.0 for Intel X86 EM64T Linux

 Parts of Q-Chem use Armadillo 9.800.1 (Horizon Scraper).
 http://arma.sourceforge.net/

 Q-Chem begins on Sun Jul 10 09:05:39 2022  

 Host: 
0

     Scratch files written to ./qchem1895330//
 May1621 |scratch|qcdevops|jenkins|workspace|build_RNUM    
 Processing $rem in /cm/shared/apps/spack/cpu/opt/spack/linux-centos8-zen2/gcc-10.2.0/qchem-5.4-akfmr7b3t57bfs6qan3padb2wnb2i7cl/config/preferences:
 Processing $rem in /home/theleonzhang/.qchemrc:
 Symmetry turned off for PCM/SM12/SMD calculation
 Core orbitals will be frozen

 Checking the input file for inconsistencies... 	...done.

--------------------------------------------------------------
User input:
--------------------------------------------------------------
$molecule
0 1
C	-0.516719	-0.333972	0.011118
C	0.144881	0.221128	1.110518
C	1.204981	1.110628	0.787818
H	-0.137619	-0.015972	2.147218
C	1.374081	1.252428	-0.601382
S	0.205181	0.271728	-1.475682
C	2.038281	1.809828	1.825718
H	1.712181	1.536228	2.847818
H	1.965881	2.914028	1.737318
H	3.113081	1.546728	1.737318
C	-0.516719	-1.774672	0.011118
H	-1.056819	-1.774872	0.946318
H	0.192681	-2.478472	0.420718
H	-1.336919	-2.293572	-0.462482
H	2.101181	1.862628	-1.150482
$end

$rem
JOBTYPE		SP
EXCHANGE	HF
CORRELATION	pRIMP2
BASIS		cc-pvtz
METHOD		rimp2
AUX_BASIS	rimp2-cc-pvtz
SOLVENT_METHOD	PCM
PURECART	11111
SYMMETRY	false
MEM_TOTAL	110000
SCF_CONVERGENCE = 6
THRESH=10
$end



$solvent
dielectric 4.90
$end
--------------------------------------------------------------
 ----------------------------------------------------------------
             Standard Nuclear Orientation (Angstroms)
    I     Atom           X                Y                Z
 ----------------------------------------------------------------
    1      C      -0.5167190000    -0.3339720000     0.0111180000
    2      C       0.1448810000     0.2211280000     1.1105180000
    3      C       1.2049810000     1.1106280000     0.7878180000
    4      H      -0.1376190000    -0.0159720000     2.1472180000
    5      C       1.3740810000     1.2524280000    -0.6013820000
    6      S       0.2051810000     0.2717280000    -1.4756820000
    7      C       2.0382810000     1.8098280000     1.8257180000
    8      H       1.7121810000     1.5362280000     2.8478180000
    9      H       1.9658810000     2.9140280000     1.7373180000
   10      H       3.1130810000     1.5467280000     1.7373180000
   11      C      -0.5167190000    -1.7746720000     0.0111180000
   12      H      -1.0568190000    -1.7748720000     0.9463180000
   13      H       0.1926810000    -2.4784720000     0.4207180000
   14      H      -1.3369190000    -2.2935720000    -0.4624820000
   15      H       2.1011810000     1.8626280000    -1.1504820000
 ----------------------------------------------------------------
 Nuclear Repulsion Energy =         348.37392004 hartrees
 There are       30 alpha and       30 beta electrons

 Q-Chem warning in module forms1/BasisType.C, line 2236:

 You are not using the predefined 5D/6D in this basis set.

 Requested basis set is cc-pVTZ
 There are 120 shells and 326 basis functions

 Total QAlloc Memory Limit 110000 MB
 Mega-Array Size       188 MB
 MEM_STATIC part       192 MB
 Discretize the solute cavity surface with Lebedev spheres
	Using 110 Lebedev grid points for each H atom
	Using 194 Lebedev grid points for other atoms
	Atomic van der Waals radii will be scaled by 1.20
 Remove points where switching function is < 1.0e-08
 Keep 1052 surface tesserae and discard 1186 interior tesserae
 Molecular Surface Area = 156.573 Angst**2

                       Distance Matrix (Angstroms)
             C (  1)   C (  2)   C (  3)   H (  4)   C (  5)   S (  6)
   C (  2)  1.398045
   C (  3)  2.377895  1.420971
   H (  4)  2.192661  1.100350  2.218056
   C (  5)  2.543019  2.346298  1.406620  3.383619
   S (  6)  1.760280  2.587398  2.612812  3.650437  1.758551
   C (  7)  3.796930  2.573022  1.503498  2.858575  2.577338  4.077407
   H (  8)  4.063559  2.684051  2.163790  2.514344  3.477332  4.750017
   H (  9)  4.437631  3.310684  2.175493  3.630101  2.929276  4.517210
   H ( 10)  4.437595  3.310635  2.175449  3.630028  2.929207  4.517176
   C ( 11)  1.440700  2.372680  3.448546  2.792788  3.621273  2.630488
   H ( 12)  1.800694  2.335607  3.669737  2.319659  4.179617  3.412814
   H ( 13)  2.295626  2.786745  3.747153  3.025526  4.044751  3.340672
   H ( 14)  2.176478  3.315686  4.428666  3.665558  4.465751  3.159970
   H ( 15)  3.609400  3.410829  2.263998  4.406380  1.096599  2.496304
             C (  7)   H (  8)   H (  9)   H ( 10)   C ( 11)   H ( 12)
   H (  8)  1.107198
   H (  9)  1.110096  1.787710
   H ( 10)  1.110059  1.787692  1.784819
   C ( 11)  4.761243  4.896623  5.579156  5.214107
   H ( 12)  4.816956  4.716614  5.634552  5.389506  1.079957
   H ( 13)  4.875426  4.931279  5.827240  5.144357  1.079979  1.527272
   H ( 14)  5.784957  5.909523  6.547267  6.276107  1.079945  1.527162
   H ( 15)  2.977333  4.030417  3.076221  3.076219  4.629543  5.253660
             H ( 13)   H ( 14)
   H ( 14)  1.775924
   H ( 15)  4.995617  5.437635
 
 Requested basis set is rimp2-cc-pVTZ
 There are 250 shells and 848 basis functions
 A cutoff of  1.0D-10 yielded   6293 shell pairs
 There are     46247 function pairs (     59498 Cartesian)
 Smallest overlap matrix eigenvalue = 1.25E-04

 Scale SEOQF with 1.000000e-01/1.000000e-01/1.000000e-01

 Standard Electronic Orientation quadrupole field applied
 Nucleus-field energy     =    -0.0000000006 hartrees
 Guess from superposition of atomic densities
 Warning:  Energy on first SCF cycle will be non-variational
 SAD guess density has 60.000000 electrons

 -----------------------------------------------------------------------
  General SCF calculation program by
  Eric Jon Sundstrom, Paul Horn, Yuezhi Mao, Dmitri Zuev, Alec White,
  David Stuck, Shaama M.S., Shane Yost, Joonho Lee, David Small,
  Daniel Levine, Susi Lehtola, Hugh Burton, Evgeny Epifanovsky,
  Bang C. Huynh
 -----------------------------------------------------------------------
 Hartree-Fock
 A restricted SCF calculation will be
 performed using DIIS
 SCF converges when DIIS error is below 1.0e-06
 ---------------------------------------
  Cycle       Energy         DIIS error
 ---------------------------------------
    1    -632.1638596606      2.94e-02  
    2    -629.2948322334      1.89e-03  
    3    -629.3642914201      6.28e-04  
    4    -629.3714036700      3.23e-04  
    5    -629.3732655940      6.32e-05  
    6    -629.3734182780      3.04e-05  
    7    -629.3734634448      1.33e-05  
    8    -629.3734794293      6.87e-06  
    9    -629.3734825736      2.40e-06  
   10    -629.3734829740      8.32e-07  Convergence criterion met
 ---------------------------------------
 SCF time:   CPU 146.57s  wall 147.00s 

************** Final PCM Free Energy Summary **************
 G_electrostatic  =      -0.00560930 hartree =      -3.51989111 kcal/mol
 G_cavitation     =       0.00000000 hartree =       0.00000000 kcal/mol
 G_dispersion     =       0.00000000 hartree =       0.00000000 kcal/mol
 G_repulsion      =       0.00000000 hartree =       0.00000000 kcal/mol
 --------------------------------------------------
 Non-electrostatic Free Energy =       0.00000000 hartree =       0.00000000 kcal/mol
 Total                         =      -0.00560930 hartree =      -3.51989111 kcal/mol
 --------------------------------------------------
 SCF Energy (H0 + V/2)                       =    -629.37348297 
 Solute Internal Energy (H0)                 =    -629.36787367 
 Total Free Energy (H0 + V/2 + non-elec)     =    -629.37348297 hartree
                                             = -394937.82136245 kcal/mol
***********************************************************

 SCF   energy in the final basis set =     -629.3734829740
 Total energy in the final basis set =     -629.3734829740


 --------------------------------------------------------------
  Generalized many-body perturbation theory program
  by Joonho Lee, Fazle Rob, Xintian Feng, Evgeny Epifanovsky

 No regularization used 
 (reg. param. = 0.0000e+00)
  (P|Q)^-1/2 Time:  CPU 0.48 s  wall 0.48 s

 In RI-MP2 calculation: 
 # of frozen core orbitals: 11

 Components of the RIMP2 correlation energy:
        aaaa    correlation energy =        -0.1473848287 a.u.
        abab    correlation energy =        -0.8932862097 a.u.
        bbbb    correlation energy =        -0.1473848287 a.u.
        non-Brillouin singles      =        -0.0000000000 a.u.
        total same-spin energy     =        -0.2947696574 a.u.
        total opposite-spin energy =        -0.8932862097 a.u.

 Total  RIMP2   correlation energy =        -1.1880558671 a.u.
        RIMP2         total energy =      -630.5615388411 a.u.

 RI-MP2 Energy Time:  CPU 11.20 s  wall 11.23 s
 
 --------------------------------------------------------------
 
                    Orbital Energies (a.u.)
 --------------------------------------------------------------
 
 Alpha MOs
 -- Occupied --
-91.9717 -11.2757 -11.2526 -11.2494 -11.2482 -11.2289 -11.2094  -8.9726
 -6.6534  -6.6526  -6.6523  -1.1688  -1.0543  -0.9997  -0.9369  -0.8840
 -0.7462  -0.7300  -0.6456  -0.5847  -0.5836  -0.5680  -0.5547  -0.5425
 -0.5186  -0.4794  -0.4610  -0.4230  -0.3370  -0.3020
 -- Virtual --
  0.0708   0.1428   0.1560   0.1749   0.1788   0.1892   0.2092   0.2232
  0.2317   0.2393   0.2504   0.2643   0.2892   0.3084   0.3390   0.3549
  0.3719   0.4028   0.4169   0.4184   0.4370   0.4503   0.4579   0.4710
  0.4809   0.4896   0.5027   0.5329   0.5390   0.5638   0.5679   0.5871
  0.5915   0.5996   0.6081   0.6226   0.6274   0.6360   0.6424   0.6464
  0.6587   0.6689   0.6802   0.6946   0.7107   0.7424   0.7721   0.7882
  0.7944   0.8119   0.8325   0.8546   0.8754   0.8836   0.9077   0.9474
  0.9588   0.9713   0.9983   1.0243   1.0304   1.0441   1.0600   1.0787
  1.0928   1.0949   1.1201   1.1431   1.1760   1.1844   1.1917   1.2056
  1.2226   1.2334   1.2577   1.2712   1.2924   1.3029   1.3090   1.3180
  1.3507   1.3867   1.3880   1.4070   1.4178   1.4289   1.4564   1.4763
  1.5018   1.5035   1.5068   1.5318   1.5379   1.5491   1.5663   1.5864
  1.6179   1.6495   1.6526   1.6647   1.6925   1.7003   1.7167   1.7266
  1.7506   1.7814   1.7993   1.8320   1.8991   1.9157   1.9356   1.9699
  1.9754   2.0427   2.0682   2.1288   2.1454   2.1813   2.2035   2.2080
  2.2577   2.2717   2.3409   2.4076   2.4288   2.4726   2.5301   2.5568
  2.5743   2.5859   2.6442   2.6561   2.6624   2.6781   2.7006   2.7318
  2.7492   2.7644   2.7844   2.8156   2.8312   2.8351   2.8539   2.9005
  2.9292   2.9431   2.9574   2.9740   3.0093   3.0287   3.0422   3.0597
  3.0642   3.1108   3.1181   3.1514   3.1584   3.1633   3.1767   3.2002
  3.2210   3.2339   3.2502   3.2563   3.2818   3.2979   3.3022   3.3295
  3.3379   3.3481   3.3793   3.3838   3.4009   3.4090   3.4231   3.4382
  3.4520   3.4596   3.4829   3.5072   3.5155   3.5312   3.5455   3.5598
  3.5737   3.5943   3.6003   3.6249   3.6426   3.6456   3.6770   3.6974
  3.7004   3.7142   3.7357   3.7455   3.7806   3.7844   3.7960   3.8165
  3.8282   3.8546   3.8661   3.8884   3.9129   3.9412   3.9539   3.9713
  3.9851   4.0002   4.0070   4.0370   4.0582   4.0742   4.0913   4.1170
  4.1376   4.1605   4.1806   4.1904   4.2179   4.2228   4.2305   4.2702
  4.2750   4.3044   4.3100   4.3510   4.3569   4.3814   4.3989   4.4013
  4.4356   4.4430   4.4611   4.4730   4.5119   4.5283   4.5668   4.5795
  4.6009   4.6177   4.6648   4.6813   4.7009   4.7383   4.7733   4.7925
  4.8293   4.8401   4.8637   4.8766   4.9072   4.9237   5.0234   5.0815
  5.1110   5.1119   5.1783   5.1999   5.2186   5.2600   5.2878   5.3201
  5.3592   5.4022   5.4082   5.4541   5.4623   5.5197   5.5477   5.5531
  5.6108   5.6238   5.6283   5.6848   5.7120   5.8102   5.8373   5.8810
  5.9507   5.9796   6.0415   6.1008   6.2159   6.2284   6.2604   6.3389
  6.4400   6.4913   9.3115  11.7674  12.8173  13.6486  14.1804  14.3802
 --------------------------------------------------------------
 
          Ground-State Mulliken Net Atomic Charges

     Atom                 Charge (a.u.)
  ----------------------------------------
      1 C                    -0.064059
      2 C                    -0.169854
      3 C                    -0.001582
      4 H                     0.181431
      5 C                    -0.202044
      6 S                     0.004476
      7 C                    -0.268173
      8 H                     0.101638
      9 H                     0.106853
     10 H                     0.105695
     11 C                    -0.366437
     12 H                     0.108463
     13 H                     0.148216
     14 H                     0.119595
     15 H                     0.195782
  ----------------------------------------
  Sum of atomic charges =     0.000000

 -----------------------------------------------------------------
                    Cartesian Multipole Moments
 -----------------------------------------------------------------
    Charge (ESU x 10^10)
                -0.0000
    Dipole Moment (Debye)
         X       1.6086      Y       0.3004      Z       2.2097
       Tot       2.7497
    Quadrupole Moments (Debye-Ang)
        XX     -48.8294     XY       5.1139     YY     -48.2876
        XZ      -0.0813     YZ      -0.9347     ZZ     -48.3315
    Octopole Moments (Debye-Ang^2)
       XXX     -71.7835    XXY      -9.5984    XYY     -20.4269
       YYY     -48.7631    XXZ      -4.7990    XYZ      -2.5424
       YYZ      -1.3746    XZZ     -23.0733    YZZ     -13.0632
       ZZZ       2.1814
    Hexadecapole Moments (Debye-Ang^3)
      XXXX    -404.1526   XXXY    -153.7636   XXYY    -138.6263
      XYYY    -159.0366   YYYY    -483.6282   XXXZ     -75.3398
      XXYZ     -23.5872   XYYZ     -26.4049   YYYZ     -65.7590
      XXZZ    -146.3879   XYZZ     -47.2801   YYZZ    -163.8896
      XZZZ     -77.1211   YZZZ     -60.2500   ZZZZ    -481.2316
 -----------------------------------------------------------------
 Total job time:  159.97s(wall), 158.12s(cpu) 
 Sun Jul 10 09:08:19 2022

        *************************************************************
        *                                                           *
        *  Thank you very much for using Q-Chem.  Have a nice day.  *
        *                                                           *
        *************************************************************


remove work dirs ./qchem1895330.0 -- ./qchem1895330.-1
rm -rf ./qchem1895330
