LAMMPS (3 Mar 2020)
units		real
atom_style	full
pair_style	lj/cut/coul/cut 10.0 11.1
bond_style	harmonic
angle_style	harmonic
dihedral_style	opls
special_bonds	lj/coul 0 0 0.5
improper_style	cvff
pair_modify mix geometric
dielectric 4.9
read_data P3HT_Methylthiophene_Phi_60_Theta_250_Methylthiophene_Internal_Energy_Interring_Angles_Only.data
  orthogonal box = (0 0 0) to (300 300 300)
  1 by 1 by 1 MPI processor grid
  reading atoms ...
  22 atoms
  scanning bonds ...
  2 = max bonds/atom
  scanning angles ...
  6 = max angles/atom
  scanning dihedrals ...
  6 = max dihedrals/atom
  scanning impropers ...
  2 = max impropers/atom
  reading bonds ...
  23 bonds
  reading angles ...
  38 angles
  reading dihedrals ...
  48 dihedrals
  reading impropers ...
  12 impropers
  4 = max # of 1-2 neighbors
  7 = max # of 1-3 neighbors
  15 = max # of 1-4 neighbors
  16 = max # of special neighbors
  special bonds CPU = 6.5992e-05 secs
  read_data CPU = 0.00535219 secs

timestep 1.0

thermo 10
thermo_style custom step temp density press evdwl ecoul ebond eangle edihed eimp etotal pe
neighbor 2.0 bin
run_style verlet
run 0
WARNING: No fixes defined, atoms won't move (src/verlet.cpp:52)
Neighbor list info ...
  update every 1 steps, delay 10 steps, check yes
  max neighbors/atom: 2000, page size: 100000
  master list distance cutoff = 13.1
  ghost atom cutoff = 13.1
  binsize = 6.55, bins = 46 46 46
  1 neighbor lists, perpetual/occasional/extra = 1 0 0
  (1) pair lj/cut/coul/cut, perpetual
      attributes: half, newton on
      pair build: half/bin/newton
      stencil: half/bin/3d/newton
      bin: standard
Per MPI rank memory allocation (min/avg/max) = 11.69 | 11.69 | 11.69 Mbytes
Step Temp Density Press E_vdwl E_coul E_bond E_angle E_dihed E_impro TotEng PotEng 
       0            0 1.1950345e-05 -3.0074561e-18            0            0            0    9.9208875            0            0    9.9208875    9.9208875 
Loop time of 7e-07 on 1 procs for 0 steps with 22 atoms

285.7% CPU use with 1 MPI tasks x no OpenMP threads

MPI task timing breakdown:
Section |  min time  |  avg time  |  max time  |%varavg| %total
---------------------------------------------------------------
Pair    | 0          | 0          | 0          |   0.0 |  0.00
Bond    | 0          | 0          | 0          |   0.0 |  0.00
Neigh   | 0          | 0          | 0          |   0.0 |  0.00
Comm    | 0          | 0          | 0          |   0.0 |  0.00
Output  | 0          | 0          | 0          |   0.0 |  0.00
Modify  | 0          | 0          | 0          |   0.0 |  0.00
Other   |            | 7e-07      |            |       |100.00

Nlocal:    22 ave 22 max 22 min
Histogram: 1 0 0 0 0 0 0 0 0 0
Nghost:    154 ave 154 max 154 min
Histogram: 1 0 0 0 0 0 0 0 0 0
Neighs:    170 ave 170 max 170 min
Histogram: 1 0 0 0 0 0 0 0 0 0

Total # of neighbors = 170
Ave neighs/atom = 7.72727
Ave special neighs/atom = 9
Neighbor list builds = 0
Dangerous builds = 0
Total wall time: 0:00:00
