You are running Q-Chem version: 5.4.0

#
# job setting
#
local host:  exp-3-29
current dir: /expanse/lustre/scratch/theleonzhang/temp_project/Dual_Hydrogenated_Test
input file:  Methylthiophene_Dihydrogenated_Anti.qcin
output file: 
nprocs     : 0
nthreads   : 1
#
# qchem installation setting
#
QC:          /cm/shared/apps/spack/cpu/opt/spack/linux-centos8-zen2/gcc-10.2.0/qchem-5.4-akfmr7b3t57bfs6qan3padb2wnb2i7cl
QCAUX:       /cm/shared/apps/spack/cpu/opt/spack/linux-centos8-zen2/gcc-10.2.0/qchem-5.4-akfmr7b3t57bfs6qan3padb2wnb2i7cl/qcaux
QCPROG:      /cm/shared/apps/spack/cpu/opt/spack/linux-centos8-zen2/gcc-10.2.0/qchem-5.4-akfmr7b3t57bfs6qan3padb2wnb2i7cl/exe/qcprog.exe_s
QCPROG_S:    /cm/shared/apps/spack/cpu/opt/spack/linux-centos8-zen2/gcc-10.2.0/qchem-5.4-akfmr7b3t57bfs6qan3padb2wnb2i7cl/exe/qcprog.exe_s
PARALLEL:    -DSERIAL
QCMPI:       mpich
#
# qchem directory setting
#
qcrun:       qchem2937917
QCSCRATCH:   .
QCLOCALSCR:  
QCTMPDIR:    .
QCFILEPREF:  ./qchem2937917
QCSAVEDIR:   
workdirs:    ./qchem2937917
workdir0:    ./qchem2937917
partmpdirs =  
#
# parallel setting
#
QCRSH:           ssh
QCMPI:           mpich
QCMPIRUN:        /cm/shared/apps/spack/cpu/opt/spack/linux-centos8-zen2/gcc-10.2.0/qchem-5.4-akfmr7b3t57bfs6qan3padb2wnb2i7cl/bin/mpi/mpirun_qchem
QCMACHINEFILE:   ./qchem2937917/hostfile

#
# env setting
#
exported envs:   QC QCAUX QCSCRATCH QCRUNNAME QCFILEPREF QCPROG QCPROG_S GUIFILE

Running Job 1 of 1 Methylthiophene_Dihydrogenated_Anti.qcin
qchem Methylthiophene_Dihydrogenated_Anti.qcin_2937917.0 ./qchem2937917/ 0
/cm/shared/apps/spack/cpu/opt/spack/linux-centos8-zen2/gcc-10.2.0/qchem-5.4-akfmr7b3t57bfs6qan3padb2wnb2i7cl/exe/qcprog.exe_s Methylthiophene_Dihydrogenated_Anti.qcin_2937917.0 ./qchem2937917/
                  Welcome to Q-Chem
     A Quantum Leap Into The Future Of Chemistry


 Q-Chem 5.4, Q-Chem, Inc., Pleasanton, CA (2021)

 License issued to: University of California, San Diego (site)

 E. Epifanovsky,  A. T. B. Gilbert,  Xintian Feng,  Joonho Lee,  Yuezhi Mao,  
 N. Mardirossian,  P. Pokhilko,  A. White,  M. Wormit,  M. P. Coons,  
 A. L. Dempwolff,  Zhengting Gan,  D. Hait,  P. R. Horn,  L. D. Jacobson,  
 I. Kaliman,  J. Kussmann,  A. W. Lange,  Ka Un Lao,  D. S. Levine,  Jie Liu,  
 S. C. McKenzie,  A. F. Morrison,  K. Nanda,  F. Plasser,  D. R. Rehn,  
 M. L. Vidal,  Zhi-Qiang You,  Ying Zhu,  B. Alam,  B. Albrecht,  
 A. Aldossary,  E. Alguire,  J. H. Andersen,  D. Barton,  K. Begam,  A. Behn,  
 Y. A. Bernard,  E. J. Berquist,  H. Burton,  A. Carreras,  K. Carter-Fenk,  
 R. Chakraborty,  A. D. Chien,  K. D. Closser,  V. Cofer-Shabica,  
 S. Dasgupta,  Jia Deng,  M. de Wergifosse,  M. Diedenhofen,  Hainam Do,  
 S. Ehlert,  Po-Tung Fang,  S. Fatehi,  Qingguo Feng,  J. Gayvert,  
 Qinghui Ge,  G. Gidofalvi,  M. Goldey,  J. Gomes,  C. Gonzalez-Espinoza,  
 S. Gulania,  A. Gunina,  M. W. D. Hanson-Heine,  P. H. P. Harbach,  
 A. W. Hauser,  M. F. Herbst,  M. Hernandez Vera,  M. Hodecker,  
 Z. C. Holden,  S. Houck,  Xunkun Huang,  Kerwin Hui,  B. C. Huynh,  
 M. Ivanov,  Hyunjun Ji,  Hanjie Jiang,  B. Kaduk,  S. Kaehler,  
 K. Khistyaev,  Jaehoon Kim,  P. Klunzinger,  Z. Koczor-Benda,  
 Joong Hoon Koh,  D. Kosenkov,  L. Koulias,  T. Kowalczyk,  C. M. Krauter,  
 K. Kue,  A. Kunitsa,  T. Kus,  A. Landau,  K. V. Lawler,  D. Lefrancois,  
 S. Lehtola,  Rain Li,  Yi-Pei Li,  Jiashu Liang,  M. Liebenthal,  
 Hung-Hsuan Lin,  You-Sheng Lin,  Fenglai Liu,  Kuan-Yu Liu,  
 M. Loipersberger,  A. Luenser,  A. Manjanath,  P. Manohar,  E. Mansoor,  
 S. F. Manzer,  Shan-Ping Mao,  A. V. Marenich,  T. Markovich,  S. Mason,  
 S. A. Maurer,  P. F. McLaughlin,  M. F. S. J. Menger,  J.-M. Mewes,  
 S. A. Mewes,  P. Morgante,  J. W. Mullinax,  T. S. Nguyen-Beck,  
 K. J. Oosterbaan,  G. Paran,  Alexander C. Paul,  Suranjan K. Paul,  
 F. Pavosevic,  Zheng Pei,  S. Prager,  E. I. Proynov,  E. Ramos,  B. Rana,  
 A. E. Rask,  A. Rettig,  R. M. Richard,  F. Rob,  E. Rossomme,  T. Scheele,  
 M. Scheurer,  M. Schneider,  N. Sergueev,  S. M. Sharada,  W. Skomorowski,  
 D. W. Small,  C. J. Stein,  Yu-Chuan Su,  E. J. Sundstrom,  Zhen Tao,  
 J. Thirman,  T. Tsuchimochi,  N. M. Tubman,  S. P. Veccham,  O. Vydrov,  
 J. Wenzel,  J. Witte,  A. Yamada,  Kun Yao,  S. Yeganeh,  S. R. Yost,  
 A. Zech,  Igor Ying Zhang,  Xing Zhang,  Yu Zhang,  D. Zuev,  
 A. Aspuru-Guzik,  A. T. Bell,  N. A. Besley,  K. B. Bravaya,  B. R. Brooks,  
 D. Casanova,  Jeng-Da Chai,  S. Coriani,  C. J. Cramer,  
 A. E. DePrince, III,  R. A. DiStasio Jr.,  A. Dreuw,  B. D. Dunietz,  
 T. R. Furlani,  W. A. Goddard III,  S. Grimme,  S. Hammes-Schiffer,  
 T. Head-Gordon,  W. J. Hehre,  Chao-Ping Hsu,  T.-C. Jagau,  Yousung Jung,  
 A. Klamt,  Jing Kong,  D. S. Lambrecht,  WanZhen Liang,  N. J. Mayhall,  
 C. W. McCurdy,  J. B. Neaton,  C. Ochsenfeld,  J. A. Parkhill,  R. Peverati,  
 V. A. Rassolov,  Yihan Shao,  L. V. Slipchenko,  T. Stauch,  R. P. Steele,  
 J. E. Subotnik,  A. J. W. Thom,  A. Tkatchenko,  D. G. Truhlar,  
 T. Van Voorhis,  T. A. Wesolowski,  K. B. Whaley,  H. L. Woodcock III,  
 P. M. Zimmerman,  S. Faraji,  P. M. W. Gill,  M. Head-Gordon,  
 J. M. Herbert,  A. I. Krylov

 Contributors to earlier versions of Q-Chem not listed above: 
 R. D. Adamson,  B. Austin,  R. Baer,  J. Baker,  G. J. O. Beran,  
 K. Brandhorst,  S. T. Brown,  E. F. C. Byrd,  A. K. Chakraborty,  
 G. K. L. Chan,  Chun-Min Chang,  Yunqing Chen,  C.-L. Cheng,  
 Siu Hung Chien,  D. M. Chipman,  D. L. Crittenden,  H. Dachsel,  
 R. J. Doerksen,  A. D. Dutoi,  R. G. Edgar,  J. Fosso-Tande,  
 L. Fusti-Molnar,  D. Ghosh,  A. Ghysels,  A. Golubeva-Zadorozhnaya,  
 J. Gonthier,  M. S. Gordon,  S. R. Gwaltney,  G. Hawkins,  J. E. Herr,  
 A. Heyden,  S. Hirata,  E. G. Hohenstein,  G. Kedziora,  F. J. Keil,  
 C. Kelley,  Jihan Kim,  R. A. King,  R. Z. Khaliullin,  P. P. Korambath,  
 W. Kurlancheek,  A. Laurent,  A. M. Lee,  M. S. Lee,  S. V. Levchenko,  
 Ching Yeh Lin,  D. Liotard,  E. Livshits,  R. C. Lochan,  I. Lotan,  
 L. A. Martinez-Martinez,  P. E. Maslen,  N. Nair,  D. P. O'Neill,  
 D. Neuhauser,  E. Neuscamman,  C. M. Oana,  R. Olivares-Amaya,  R. Olson,  
 T. M. Perrine,  B. Peters,  P. A. Pieniazek,  A. Prociuk,  Y. M. Rhee,  
 J. Ritchie,  M. A. Rohrdanz,  E. Rosta,  N. J. Russ,  H. F. Schaefer III,  
 M. W. Schmidt,  N. E. Schultz,  S. Sharma,  N. Shenvi,  C. D. Sherrill,  
 A. C. Simmonett,  A. Sodt,  T. Stein,  D. Stuck,  K. S. Thanthiriwatte,  
 V. Vanovschi,  L. Vogt,  Tao Wang,  A. Warshel,  M. A. Watson,  
 C. F. Williams,  Q. Wu,  X. Xu,  Jun Yang,  W. Zhang,  Yan Zhao

 Please cite Q-Chem as follows:
 Y. Shao et al., Mol. Phys. 113, 184-215 (2015)
 DOI: 10.1080/00268976.2014.952696

 Q-Chem 5.4.0 for Intel X86 EM64T Linux

 Parts of Q-Chem use Armadillo 9.800.1 (Horizon Scraper).
 http://arma.sourceforge.net/

 Q-Chem begins on Thu Jul  7 12:14:39 2022  

 Host: 
0

     Scratch files written to ./qchem2937917//
 May1621 |scratch|qcdevops|jenkins|workspace|build_RNUM    
 Processing $rem in /cm/shared/apps/spack/cpu/opt/spack/linux-centos8-zen2/gcc-10.2.0/qchem-5.4-akfmr7b3t57bfs6qan3padb2wnb2i7cl/config/preferences:
 Processing $rem in /home/theleonzhang/.qchemrc:
 Symmetry turned off for PCM/SM12/SMD calculation
 Core orbitals will be frozen

 Checking the input file for inconsistencies... 	...done.

--------------------------------------------------------------
User input:
--------------------------------------------------------------
$molecule
0 1
C	-2.405611	-1.193021	-0.000214
C	-1.368666	-2.129464	0.000078
C	-0.056385	-1.583331	0.000240
H	-1.558377	-3.213550	-0.000026
C	-0.070096	-0.177164	0.000128
S	-1.724467	0.426738	0.000356
C	1.187191	-2.428518	0.000317
H	0.935459	-3.506775	0.000315
H	1.817888	-2.233555	0.892774
H	1.817979	-2.233577	-0.892081
H	-2.405485	-1.192963	-1.080214
C	-3.830362	-1.463163	-0.000693
H	-4.210742	-1.535317	1.007605
H	-4.047583	-2.393146	-0.504941
H	-4.372936	-0.677211	-0.504888
H	-0.070222	-0.177222	1.080128
C	1.013453	0.772275	-0.000060
H	1.304668	1.027397	-1.008181
H	1.880178	0.370895	0.504104
H	0.729382	1.684243	0.504040
$end

$rem
JOBTYPE		SP
EXCHANGE	HF
CORRELATION	pRIMP2
BASIS		cc-pvtz
METHOD		rimp2
AUX_BASIS	rimp2-cc-pvtz
SOLVENT_METHOD	PCM
PURECART	11111
SYMMETRY	false
MEM_TOTAL	110000
SCF_CONVERGENCE = 6
THRESH=10
$end



$solvent
dielectric 4.90
$end
--------------------------------------------------------------
 ----------------------------------------------------------------
             Standard Nuclear Orientation (Angstroms)
    I     Atom           X                Y                Z
 ----------------------------------------------------------------
    1      C      -2.4056110000    -1.1930210000    -0.0002140000
    2      C      -1.3686660000    -2.1294640000     0.0000780000
    3      C      -0.0563850000    -1.5833310000     0.0002400000
    4      H      -1.5583770000    -3.2135500000    -0.0000260000
    5      C      -0.0700960000    -0.1771640000     0.0001280000
    6      S      -1.7244670000     0.4267380000     0.0003560000
    7      C       1.1871910000    -2.4285180000     0.0003170000
    8      H       0.9354590000    -3.5067750000     0.0003150000
    9      H       1.8178880000    -2.2335550000     0.8927740000
   10      H       1.8179790000    -2.2335770000    -0.8920810000
   11      H      -2.4054850000    -1.1929630000    -1.0802140000
   12      C      -3.8303620000    -1.4631630000    -0.0006930000
   13      H      -4.2107420000    -1.5353170000     1.0076050000
   14      H      -4.0475830000    -2.3931460000    -0.5049410000
   15      H      -4.3729360000    -0.6772110000    -0.5048880000
   16      H      -0.0702220000    -0.1772220000     1.0801280000
   17      C       1.0134530000     0.7722750000    -0.0000600000
   18      H       1.3046680000     1.0273970000    -1.0081810000
   19      H       1.8801780000     0.3708950000     0.5041040000
   20      H       0.7293820000     1.6842430000     0.5040400000
 ----------------------------------------------------------------
 Nuclear Repulsion Energy =         464.65783443 hartrees
 There are       35 alpha and       35 beta electrons

 Q-Chem warning in module forms1/BasisType.C, line 2236:

 You are not using the predefined 5D/6D in this basis set.

 Requested basis set is cc-pVTZ
 There are 154 shells and 412 basis functions

 Total QAlloc Memory Limit 110000 MB
 Mega-Array Size       188 MB
 MEM_STATIC part       192 MB
 Discretize the solute cavity surface with Lebedev spheres
	Using 110 Lebedev grid points for each H atom
	Using 194 Lebedev grid points for other atoms
	Atomic van der Waals radii will be scaled by 1.20
 Remove points where switching function is < 1.0e-08
 Keep 1281 surface tesserae and discard 1591 interior tesserae
 Molecular Surface Area = 177.955 Angst**2
 Requested basis set is rimp2-cc-pVTZ
 There are 313 shells and 1049 basis functions
 A cutoff of  1.0D-10 yielded   9900 shell pairs
 There are     69258 function pairs (     87909 Cartesian)
 Smallest overlap matrix eigenvalue = 4.68E-05

 Scale SEOQF with 1.000000e-01/1.000000e-01/1.000000e+00

 Standard Electronic Orientation quadrupole field applied
 Nucleus-field energy     =     0.0000000131 hartrees
 Guess from superposition of atomic densities
 Warning:  Energy on first SCF cycle will be non-variational
 SAD guess density has 70.000000 electrons

 -----------------------------------------------------------------------
  General SCF calculation program by
  Eric Jon Sundstrom, Paul Horn, Yuezhi Mao, Dmitri Zuev, Alec White,
  David Stuck, Shaama M.S., Shane Yost, Joonho Lee, David Small,
  Daniel Levine, Susi Lehtola, Hugh Burton, Evgeny Epifanovsky,
  Bang C. Huynh
 -----------------------------------------------------------------------
 Hartree-Fock
You are running Q-Chem version: 5.4.0

#
# job setting
#
local host:  exp-5-01
current dir: /expanse/lustre/scratch/theleonzhang/temp_project/Dual_Hydrogenated_Test
input file:  Methylthiophene_Dihydrogenated_Anti.qcin
output file: 
nprocs     : 0
nthreads   : 1
#
# qchem installation setting
#
QC:          /cm/shared/apps/spack/cpu/opt/spack/linux-centos8-zen2/gcc-10.2.0/qchem-5.4-akfmr7b3t57bfs6qan3padb2wnb2i7cl
QCAUX:       /cm/shared/apps/spack/cpu/opt/spack/linux-centos8-zen2/gcc-10.2.0/qchem-5.4-akfmr7b3t57bfs6qan3padb2wnb2i7cl/qcaux
QCPROG:      /cm/shared/apps/spack/cpu/opt/spack/linux-centos8-zen2/gcc-10.2.0/qchem-5.4-akfmr7b3t57bfs6qan3padb2wnb2i7cl/exe/qcprog.exe_s
QCPROG_S:    /cm/shared/apps/spack/cpu/opt/spack/linux-centos8-zen2/gcc-10.2.0/qchem-5.4-akfmr7b3t57bfs6qan3padb2wnb2i7cl/exe/qcprog.exe_s
PARALLEL:    -DSERIAL
QCMPI:       mpich
#
# qchem directory setting
#
qcrun:       qchem291351
QCSCRATCH:   .
QCLOCALSCR:  
QCTMPDIR:    .
QCFILEPREF:  ./qchem291351
QCSAVEDIR:   
workdirs:    ./qchem291351
workdir0:    ./qchem291351
partmpdirs =  
#
# parallel setting
#
QCRSH:           ssh
QCMPI:           mpich
QCMPIRUN:        /cm/shared/apps/spack/cpu/opt/spack/linux-centos8-zen2/gcc-10.2.0/qchem-5.4-akfmr7b3t57bfs6qan3padb2wnb2i7cl/bin/mpi/mpirun_qchem
QCMACHINEFILE:   ./qchem291351/hostfile

#
# env setting
#
exported envs:   QC QCAUX QCSCRATCH QCRUNNAME QCFILEPREF QCPROG QCPROG_S GUIFILE

Running Job 1 of 1 Methylthiophene_Dihydrogenated_Anti.qcin
qchem Methylthiophene_Dihydrogenated_Anti.qcin_291351.0 ./qchem291351/ 0
/cm/shared/apps/spack/cpu/opt/spack/linux-centos8-zen2/gcc-10.2.0/qchem-5.4-akfmr7b3t57bfs6qan3padb2wnb2i7cl/exe/qcprog.exe_s Methylthiophene_Dihydrogenated_Anti.qcin_291351.0 ./qchem291351/
                  Welcome to Q-Chem
     A Quantum Leap Into The Future Of Chemistry


 Q-Chem 5.4, Q-Chem, Inc., Pleasanton, CA (2021)

 License issued to: University of California, San Diego (site)

 E. Epifanovsky,  A. T. B. Gilbert,  Xintian Feng,  Joonho Lee,  Yuezhi Mao,  
 N. Mardirossian,  P. Pokhilko,  A. White,  M. Wormit,  M. P. Coons,  
 A. L. Dempwolff,  Zhengting Gan,  D. Hait,  P. R. Horn,  L. D. Jacobson,  
 I. Kaliman,  J. Kussmann,  A. W. Lange,  Ka Un Lao,  D. S. Levine,  Jie Liu,  
 S. C. McKenzie,  A. F. Morrison,  K. Nanda,  F. Plasser,  D. R. Rehn,  
 M. L. Vidal,  Zhi-Qiang You,  Ying Zhu,  B. Alam,  B. Albrecht,  
 A. Aldossary,  E. Alguire,  J. H. Andersen,  D. Barton,  K. Begam,  A. Behn,  
 Y. A. Bernard,  E. J. Berquist,  H. Burton,  A. Carreras,  K. Carter-Fenk,  
 R. Chakraborty,  A. D. Chien,  K. D. Closser,  V. Cofer-Shabica,  
 S. Dasgupta,  Jia Deng,  M. de Wergifosse,  M. Diedenhofen,  Hainam Do,  
 S. Ehlert,  Po-Tung Fang,  S. Fatehi,  Qingguo Feng,  J. Gayvert,  
 Qinghui Ge,  G. Gidofalvi,  M. Goldey,  J. Gomes,  C. Gonzalez-Espinoza,  
 S. Gulania,  A. Gunina,  M. W. D. Hanson-Heine,  P. H. P. Harbach,  
 A. W. Hauser,  M. F. Herbst,  M. Hernandez Vera,  M. Hodecker,  
 Z. C. Holden,  S. Houck,  Xunkun Huang,  Kerwin Hui,  B. C. Huynh,  
 M. Ivanov,  Hyunjun Ji,  Hanjie Jiang,  B. Kaduk,  S. Kaehler,  
 K. Khistyaev,  Jaehoon Kim,  P. Klunzinger,  Z. Koczor-Benda,  
 Joong Hoon Koh,  D. Kosenkov,  L. Koulias,  T. Kowalczyk,  C. M. Krauter,  
 K. Kue,  A. Kunitsa,  T. Kus,  A. Landau,  K. V. Lawler,  D. Lefrancois,  
 S. Lehtola,  Rain Li,  Yi-Pei Li,  Jiashu Liang,  M. Liebenthal,  
 Hung-Hsuan Lin,  You-Sheng Lin,  Fenglai Liu,  Kuan-Yu Liu,  
 M. Loipersberger,  A. Luenser,  A. Manjanath,  P. Manohar,  E. Mansoor,  
 S. F. Manzer,  Shan-Ping Mao,  A. V. Marenich,  T. Markovich,  S. Mason,  
 S. A. Maurer,  P. F. McLaughlin,  M. F. S. J. Menger,  J.-M. Mewes,  
 S. A. Mewes,  P. Morgante,  J. W. Mullinax,  T. S. Nguyen-Beck,  
 K. J. Oosterbaan,  G. Paran,  Alexander C. Paul,  Suranjan K. Paul,  
 F. Pavosevic,  Zheng Pei,  S. Prager,  E. I. Proynov,  E. Ramos,  B. Rana,  
 A. E. Rask,  A. Rettig,  R. M. Richard,  F. Rob,  E. Rossomme,  T. Scheele,  
 M. Scheurer,  M. Schneider,  N. Sergueev,  S. M. Sharada,  W. Skomorowski,  
 D. W. Small,  C. J. Stein,  Yu-Chuan Su,  E. J. Sundstrom,  Zhen Tao,  
 J. Thirman,  T. Tsuchimochi,  N. M. Tubman,  S. P. Veccham,  O. Vydrov,  
 J. Wenzel,  J. Witte,  A. Yamada,  Kun Yao,  S. Yeganeh,  S. R. Yost,  
 A. Zech,  Igor Ying Zhang,  Xing Zhang,  Yu Zhang,  D. Zuev,  
 A. Aspuru-Guzik,  A. T. Bell,  N. A. Besley,  K. B. Bravaya,  B. R. Brooks,  
 D. Casanova,  Jeng-Da Chai,  S. Coriani,  C. J. Cramer,  
 A. E. DePrince, III,  R. A. DiStasio Jr.,  A. Dreuw,  B. D. Dunietz,  
 T. R. Furlani,  W. A. Goddard III,  S. Grimme,  S. Hammes-Schiffer,  
 T. Head-Gordon,  W. J. Hehre,  Chao-Ping Hsu,  T.-C. Jagau,  Yousung Jung,  
 A. Klamt,  Jing Kong,  D. S. Lambrecht,  WanZhen Liang,  N. J. Mayhall,  
 C. W. McCurdy,  J. B. Neaton,  C. Ochsenfeld,  J. A. Parkhill,  R. Peverati,  
 V. A. Rassolov,  Yihan Shao,  L. V. Slipchenko,  T. Stauch,  R. P. Steele,  
 J. E. Subotnik,  A. J. W. Thom,  A. Tkatchenko,  D. G. Truhlar,  
 T. Van Voorhis,  T. A. Wesolowski,  K. B. Whaley,  H. L. Woodcock III,  
 P. M. Zimmerman,  S. Faraji,  P. M. W. Gill,  M. Head-Gordon,  
 J. M. Herbert,  A. I. Krylov

 Contributors to earlier versions of Q-Chem not listed above: 
 R. D. Adamson,  B. Austin,  R. Baer,  J. Baker,  G. J. O. Beran,  
 K. Brandhorst,  S. T. Brown,  E. F. C. Byrd,  A. K. Chakraborty,  
 G. K. L. Chan,  Chun-Min Chang,  Yunqing Chen,  C.-L. Cheng,  
 Siu Hung Chien,  D. M. Chipman,  D. L. Crittenden,  H. Dachsel,  
 R. J. Doerksen,  A. D. Dutoi,  R. G. Edgar,  J. Fosso-Tande,  
 L. Fusti-Molnar,  D. Ghosh,  A. Ghysels,  A. Golubeva-Zadorozhnaya,  
 J. Gonthier,  M. S. Gordon,  S. R. Gwaltney,  G. Hawkins,  J. E. Herr,  
 A. Heyden,  S. Hirata,  E. G. Hohenstein,  G. Kedziora,  F. J. Keil,  
 C. Kelley,  Jihan Kim,  R. A. King,  R. Z. Khaliullin,  P. P. Korambath,  
 W. Kurlancheek,  A. Laurent,  A. M. Lee,  M. S. Lee,  S. V. Levchenko,  
 Ching Yeh Lin,  D. Liotard,  E. Livshits,  R. C. Lochan,  I. Lotan,  
 L. A. Martinez-Martinez,  P. E. Maslen,  N. Nair,  D. P. O'Neill,  
 D. Neuhauser,  E. Neuscamman,  C. M. Oana,  R. Olivares-Amaya,  R. Olson,  
 T. M. Perrine,  B. Peters,  P. A. Pieniazek,  A. Prociuk,  Y. M. Rhee,  
 J. Ritchie,  M. A. Rohrdanz,  E. Rosta,  N. J. Russ,  H. F. Schaefer III,  
 M. W. Schmidt,  N. E. Schultz,  S. Sharma,  N. Shenvi,  C. D. Sherrill,  
 A. C. Simmonett,  A. Sodt,  T. Stein,  D. Stuck,  K. S. Thanthiriwatte,  
 V. Vanovschi,  L. Vogt,  Tao Wang,  A. Warshel,  M. A. Watson,  
 C. F. Williams,  Q. Wu,  X. Xu,  Jun Yang,  W. Zhang,  Yan Zhao

 Please cite Q-Chem as follows:
 Y. Shao et al., Mol. Phys. 113, 184-215 (2015)
 DOI: 10.1080/00268976.2014.952696

 Q-Chem 5.4.0 for Intel X86 EM64T Linux

 Parts of Q-Chem use Armadillo 9.800.1 (Horizon Scraper).
 http://arma.sourceforge.net/

 Q-Chem begins on Thu Jul  7 12:14:43 2022  

 Host: 
0

     Scratch files written to ./qchem291351//
 May1621 |scratch|qcdevops|jenkins|workspace|build_RNUM    
 Processing $rem in /cm/shared/apps/spack/cpu/opt/spack/linux-centos8-zen2/gcc-10.2.0/qchem-5.4-akfmr7b3t57bfs6qan3padb2wnb2i7cl/config/preferences:
 Processing $rem in /home/theleonzhang/.qchemrc:
 Symmetry turned off for PCM/SM12/SMD calculation
 Core orbitals will be frozen

 Checking the input file for inconsistencies... 	...done.

--------------------------------------------------------------
User input:
--------------------------------------------------------------
$molecule
0 1
C	-2.405611	-1.193021	-0.000214
C	-1.368666	-2.129464	0.000078
C	-0.056385	-1.583331	0.000240
H	-1.558377	-3.213550	-0.000026
C	-0.070096	-0.177164	0.000128
S	-1.724467	0.426738	0.000356
C	1.187191	-2.428518	0.000317
H	0.935459	-3.506775	0.000315
H	1.817888	-2.233555	0.892774
H	1.817979	-2.233577	-0.892081
H	-2.405485	-1.192963	-1.080214
C	-3.830362	-1.463163	-0.000693
H	-4.210742	-1.535317	1.007605
H	-4.047583	-2.393146	-0.504941
H	-4.372936	-0.677211	-0.504888
H	-0.070222	-0.177222	1.080128
C	1.013453	0.772275	-0.000060
H	1.304668	1.027397	-1.008181
H	1.880178	0.370895	0.504104
H	0.729382	1.684243	0.504040
$end

$rem
JOBTYPE		SP
EXCHANGE	HF
CORRELATION	pRIMP2
BASIS		cc-pvtz
METHOD		rimp2
AUX_BASIS	rimp2-cc-pvtz
SOLVENT_METHOD	PCM
PURECART	11111
SYMMETRY	false
MEM_TOTAL	110000
SCF_CONVERGENCE = 6
THRESH=10
$end



$solvent
dielectric 4.90
$end
--------------------------------------------------------------
 ----------------------------------------------------------------
             Standard Nuclear Orientation (Angstroms)
    I     Atom           X                Y                Z
 ----------------------------------------------------------------
    1      C      -2.4056110000    -1.1930210000    -0.0002140000
    2      C      -1.3686660000    -2.1294640000     0.0000780000
    3      C      -0.0563850000    -1.5833310000     0.0002400000
    4      H      -1.5583770000    -3.2135500000    -0.0000260000
    5      C      -0.0700960000    -0.1771640000     0.0001280000
    6      S      -1.7244670000     0.4267380000     0.0003560000
    7      C       1.1871910000    -2.4285180000     0.0003170000
    8      H       0.9354590000    -3.5067750000     0.0003150000
    9      H       1.8178880000    -2.2335550000     0.8927740000
   10      H       1.8179790000    -2.2335770000    -0.8920810000
   11      H      -2.4054850000    -1.1929630000    -1.0802140000
   12      C      -3.8303620000    -1.4631630000    -0.0006930000
   13      H      -4.2107420000    -1.5353170000     1.0076050000
   14      H      -4.0475830000    -2.3931460000    -0.5049410000
   15      H      -4.3729360000    -0.6772110000    -0.5048880000
   16      H      -0.0702220000    -0.1772220000     1.0801280000
   17      C       1.0134530000     0.7722750000    -0.0000600000
   18      H       1.3046680000     1.0273970000    -1.0081810000
   19      H       1.8801780000     0.3708950000     0.5041040000
   20      H       0.7293820000     1.6842430000     0.5040400000
 ----------------------------------------------------------------
 Nuclear Repulsion Energy =         464.65783443 hartrees
 There are       35 alpha and       35 beta electrons

 Q-Chem warning in module forms1/BasisType.C, line 2236:

 You are not using the predefined 5D/6D in this basis set.

 Requested basis set is cc-pVTZ
 There are 154 shells and 412 basis functions

 Total QAlloc Memory Limit 110000 MB
 Mega-Array Size       188 MB
 MEM_STATIC part       192 MB
 Discretize the solute cavity surface with Lebedev spheres
	Using 110 Lebedev grid points for each H atom
	Using 194 Lebedev grid points for other atoms
	Atomic van der Waals radii will be scaled by 1.20
 Remove points where switching function is < 1.0e-08
 Keep 1281 surface tesserae and discard 1591 interior tesserae
 Molecular Surface Area = 177.955 Angst**2
 Requested basis set is rimp2-cc-pVTZ
 There are 313 shells and 1049 basis functions
 A cutoff of  1.0D-10 yielded   9900 shell pairs
 There are     69258 function pairs (     87909 Cartesian)
 Smallest overlap matrix eigenvalue = 4.68E-05

 Scale SEOQF with 1.000000e-01/1.000000e-01/1.000000e+00

 Standard Electronic Orientation quadrupole field applied
 Nucleus-field energy     =     0.0000000131 hartrees
 Guess from superposition of atomic densities
 Warning:  Energy on first SCF cycle will be non-variational
 SAD guess density has 70.000000 electrons

 -----------------------------------------------------------------------
  General SCF calculation program by
  Eric Jon Sundstrom, Paul Horn, Yuezhi Mao, Dmitri Zuev, Alec White,
  David Stuck, Shaama M.S., Shane Yost, Joonho Lee, David Small,
  Daniel Levine, Susi Lehtola, Hugh Burton, Evgeny Epifanovsky,
  Bang C. Huynh
 -----------------------------------------------------------------------
 Hartree-Fock
 A restricted SCF calculation will be
 performed using DIIS
 SCF converges when DIIS error is below 1.0e-06
 ---------------------------------------
  Cycle       Energy         DIIS error
 ---------------------------------------
 A restricted SCF calculation will be
 performed using DIIS
 SCF converges when DIIS error is below 1.0e-06
 ---------------------------------------
  Cycle       Energy         DIIS error
 ---------------------------------------
    1    -673.6178482994      2.75e-02  
    1    -673.6178482994      2.75e-02  
    2    -669.4316930224      1.68e-03  
    2    -669.4316930224      1.68e-03  
    3    -669.5174657739      4.90e-04  
    3    -669.5174657739      4.90e-04  
    4    -669.5252354424      1.96e-04  
    4    -669.5252354424      1.96e-04  
    5    -669.5262778694      4.39e-05  
    5    -669.5262778694      4.39e-05  
    6    -669.5263557875      1.74e-05  
    6    -669.5263557875      1.74e-05  
    7    -669.5263673294      4.73e-06  
    7    -669.5263673294      4.73e-06  
    8    -669.5263686261      1.64e-06  
    9    -669.5263687666      4.62e-07  Convergence criterion met
 ---------------------------------------
 SCF time:   CPU 252.03s  wall 254.00s 

************** Final PCM Free Energy Summary **************
 G_electrostatic  =      -0.00609334 hartree =      -3.82363106 kcal/mol
 G_cavitation     =       0.00000000 hartree =       0.00000000 kcal/mol
 G_dispersion     =       0.00000000 hartree =       0.00000000 kcal/mol
 G_repulsion      =       0.00000000 hartree =       0.00000000 kcal/mol
 --------------------------------------------------
 Non-electrostatic Free Energy =       0.00000000 hartree =       0.00000000 kcal/mol
 Total                         =      -0.00609334 hartree =      -3.82363106 kcal/mol
 --------------------------------------------------
 SCF Energy (H0 + V/2)                       =    -669.52636877 
 Solute Internal Energy (H0)                 =    -669.52027542 
 Total Free Energy (H0 + V/2 + non-elec)     =    -669.52636877 hartree
                                             = -420134.13748529 kcal/mol
***********************************************************

 SCF   energy in the final basis set =     -669.5263687666
 Total energy in the final basis set =     -669.5263687666


 --------------------------------------------------------------
  Generalized many-body perturbation theory program
  by Joonho Lee, Fazle Rob, Xintian Feng, Evgeny Epifanovsky

 No regularization used 
 (reg. param. = 0.0000e+00)
  (P|Q)^-1/2 Time:  CPU 0.89 s  wall 0.89 s
    8    -669.5263686261      1.64e-06  
    9    -669.5263687666      4.62e-07  Convergence criterion met
 ---------------------------------------
 SCF time:   CPU 252.69s  wall 254.00s 

************** Final PCM Free Energy Summary **************
 G_electrostatic  =      -0.00609334 hartree =      -3.82363106 kcal/mol
 G_cavitation     =       0.00000000 hartree =       0.00000000 kcal/mol
 G_dispersion     =       0.00000000 hartree =       0.00000000 kcal/mol
 G_repulsion      =       0.00000000 hartree =       0.00000000 kcal/mol
 --------------------------------------------------
 Non-electrostatic Free Energy =       0.00000000 hartree =       0.00000000 kcal/mol
 Total                         =      -0.00609334 hartree =      -3.82363106 kcal/mol
 --------------------------------------------------
 SCF Energy (H0 + V/2)                       =    -669.52636877 
 Solute Internal Energy (H0)                 =    -669.52027542 
 Total Free Energy (H0 + V/2 + non-elec)     =    -669.52636877 hartree
                                             = -420134.13748529 kcal/mol
***********************************************************

 SCF   energy in the final basis set =     -669.5263687666
 Total energy in the final basis set =     -669.5263687666


 --------------------------------------------------------------
  Generalized many-body perturbation theory program
  by Joonho Lee, Fazle Rob, Xintian Feng, Evgeny Epifanovsky

 No regularization used 
 (reg. param. = 0.0000e+00)
  (P|Q)^-1/2 Time:  CPU 0.89 s  wall 0.89 s

 In RI-MP2 calculation: 
 # of frozen core orbitals: 12

 Components of the RIMP2 correlation energy:
        aaaa    correlation energy =        -0.1651093052 a.u.
        abab    correlation energy =        -1.0524146449 a.u.
        bbbb    correlation energy =        -0.1651093052 a.u.
        non-Brillouin singles      =        -0.0000000000 a.u.
        total same-spin energy     =        -0.3302186104 a.u.
        total opposite-spin energy =        -1.0524146449 a.u.

 Total  RIMP2   correlation energy =        -1.3826332552 a.u.
        RIMP2         total energy =      -670.9090020219 a.u.

 RI-MP2 Energy Time:  CPU 27.18 s  wall 27.29 s
 
 --------------------------------------------------------------
 
                    Orbital Energies (a.u.)
 --------------------------------------------------------------
 
 Alpha MOs
 -- Occupied --
-91.9362 -11.2423 -11.2344 -11.2306 -11.2272 -11.2235 -11.2173 -11.2169
 -8.9406  -6.6220  -6.6213  -6.6198  -1.1901  -1.0929  -1.0217  -0.9687
 -0.9190  -0.8780  -0.7554  -0.7215  -0.6481  -0.6370  -0.6174  -0.5884
 -0.5768  -0.5579  -0.5470  -0.5399  -0.5106  -0.4970  -0.4722  -0.4638
 -0.4352  -0.3525  -0.2426
 -- Virtual --
  0.1205   0.1433   0.1600   0.1766   0.1804   0.1911   0.1999   0.2111
  0.2179   0.2218   0.2345   0.2472   0.2561   0.2599   0.2711   0.3033
  0.3139   0.3493   0.3702   0.3795   0.3844   0.3918   0.4063   0.4094
  0.4355   0.4403   0.4438   0.4565   0.4720   0.4875   0.4938   0.5077
  0.5389   0.5477   0.5640   0.5790   0.5868   0.5932   0.5997   0.6059
  0.6127   0.6254   0.6308   0.6402   0.6433   0.6536   0.6574   0.6621
  0.6714   0.6749   0.6831   0.6937   0.7315   0.7368   0.7564   0.7639
  0.7925   0.7972   0.8112   0.8321   0.8434   0.8620   0.8840   0.9002
  0.9105   0.9307   0.9385   0.9676   0.9907   0.9981   1.0129   1.0209
  1.0345   1.0597   1.0690   1.0838   1.0965   1.1111   1.1260   1.1342
  1.1370   1.1634   1.1733   1.1855   1.2079   1.2182   1.2209   1.2408
  1.2515   1.2607   1.2758   1.2912   1.3095   1.3144   1.3364   1.3452
  1.3573   1.3631   1.3746   1.3884   1.4079   1.4133   1.4233   1.4300
  1.4472   1.4620   1.4853   1.4951   1.5040   1.5167   1.5297   1.5393
  1.5447   1.5505   1.5610   1.5694   1.5855   1.5953   1.6064   1.6329
  1.6377   1.6465   1.6644   1.6959   1.7058   1.7117   1.7237   1.7364
  1.7583   1.7621   1.7810   1.8100   1.8343   1.8586   1.8693   1.8789
  1.9264   1.9338   1.9527   2.0228   2.0426   2.0735   2.1178   2.1499
  2.1856   2.2180   2.2387   2.2530   2.2844   2.3370   2.3577   2.4099
  2.4289   2.4961   2.5433   2.5755   2.5962   2.6111   2.6244   2.6292
  2.6508   2.6692   2.6977   2.7156   2.7445   2.7608   2.7838   2.7931
  2.8070   2.8188   2.8567   2.8787   2.8885   2.8961   2.9157   2.9605
  2.9972   3.0093   3.0277   3.0365   3.0704   3.0738   3.0841   3.1109
  3.1155   3.1181   3.1272   3.1341   3.1526   3.1589   3.1820   3.1900
  3.1932   3.2129   3.2211   3.2328   3.2539   3.2554   3.2759   3.2842
  3.2908   3.2955   3.3020   3.3247   3.3407   3.3439   3.3576   3.3613
  3.3737   3.3962   3.4043   3.4185   3.4279   3.4474   3.4499   3.4562
  3.4695   3.4840   3.4994   3.5260   3.5297   3.5521   3.5586   3.5868
  3.6030   3.6205   3.6270   3.6343   3.6489   3.6618   3.6758   3.6798
  3.6993   3.7205   3.7273   3.7394   3.7463   3.7649   3.7717   3.7832
  3.7943   3.8160   3.8234   3.8339   3.8433   3.8560   3.8646   3.8875
  3.9095   3.9280   3.9348   3.9662   3.9726   3.9970   4.0114   4.0362
  4.0528   4.0617   4.0795   4.0827   4.1079   4.1260   4.1329   4.1430
  4.1595   4.1799   4.1855   4.1934   4.2148   4.2301   4.2664   4.2695
  4.2751   4.2939   4.3101   4.3130   4.3312   4.3443   4.3656   4.3774
  4.3791   4.3858   4.3990   4.4142   4.4350   4.4417   4.4477   4.4748
  4.4827   4.4919   4.5004   4.5245   4.5422   4.5467   4.5797   4.6133
  4.6237   4.6414   4.6557   4.6725   4.6932   4.7182   4.7296   4.7606
  4.7651   4.8026   4.8311   4.8620   4.8819   4.8966   4.9104   4.9301
  4.9552   4.9648   4.9941   5.0280   5.0682   5.0743   5.1312   5.1437
  5.1532   5.1729   5.2134   5.2440   5.2901   5.2999   5.3532   5.3678
  5.3922   5.3946   5.4157   5.4208   5.4380   5.4685   5.4815   5.4921
  5.5186   5.5230   5.5554   5.5704   5.5836   5.5973   5.6260   5.6395
  5.6454   5.6686   5.6748   5.6876   5.7176   5.7509   5.7676   5.7697
  5.7774   5.7860   5.8084   5.8934   5.9363   6.0047   6.1442   6.1930
  6.2363   6.2453   6.2780   6.3022   6.3200   6.3406   6.3579   6.3697
  6.3960   6.5150  10.4345  13.3453  14.0749  14.3331  14.4600  15.0662
 15.3164
 --------------------------------------------------------------
 
          Ground-State Mulliken Net Atomic Charges

     Atom                 Charge (a.u.)
  ----------------------------------------
      1 C                     0.071879
      2 C                    -0.359589
      3 C                    -0.087951
      4 H                     0.176431
      5 C                     0.069353
      6 S                    -0.236195
      7 C                    -0.279145
      8 H                     0.109184
      9 H                     0.097252
     10 H                     0.099142
     11 H                     0.169371
     12 C                    -0.291928
     13 H                     0.074005
     14 H                     0.110755
     15 H                     0.108239
     16 H                     0.171789
     17 C                    -0.301524
     18 H                     0.078688
     19 H                     0.109575
     20 H                     0.110667
  ----------------------------------------
  Sum of atomic charges =     0.000000

 -----------------------------------------------------------------
                    Cartesian Multipole Moments
 -----------------------------------------------------------------
    Charge (ESU x 10^10)
                -0.0000
    Dipole Moment (Debye)
         X       1.2339      Y      -1.8753      Z      -0.0430
       Tot       2.2452
    Quadrupole Moments (Debye-Ang)
        XX     -55.6888     XY       4.5625     YY     -56.7417
        XZ       2.2849     YZ       1.1983     ZZ     -59.9436
    Octopole Moments (Debye-Ang^2)
       XXX     160.2507    XXY      32.5779    XYY      54.6281
       YYY     131.2967    XXZ      -5.8080    XYZ      -2.9787
       YYZ      -1.8631    XZZ      60.9020    YZZ      48.6656
       ZZZ      -0.1645
    Hexadecapole Moments (Debye-Ang^3)
      XXXX   -1364.8777   XXXY    -127.9678   XXYY    -359.3838
      XYYY    -135.6679   YYYY    -779.5107   XXXZ      23.6399
      XXYZ      10.1026   XYYZ       6.4588   YYYZ       6.2449
      XXZZ    -252.0689   XYZZ     -51.2454   YYZZ    -165.1613
      XZZZ      -3.9265   YZZZ      -1.2544   ZZZZ     -99.7768
 -----------------------------------------------------------------
 Total job time:  283.20s(wall), 280.22s(cpu) 
 Thu Jul  7 12:19:22 2022

        *************************************************************
        *                                                           *
        *  Thank you very much for using Q-Chem.  Have a nice day.  *
        *                                                           *
        *************************************************************


remove work dirs ./qchem2937917.0 -- ./qchem2937917.-1
rm -rf ./qchem2937917

 In RI-MP2 calculation: 
 # of frozen core orbitals: 12

 Components of the RIMP2 correlation energy:
        aaaa    correlation energy =        -0.1651093052 a.u.
        abab    correlation energy =        -1.0524146449 a.u.
        bbbb    correlation energy =        -0.1651093052 a.u.
        non-Brillouin singles      =        -0.0000000000 a.u.
        total same-spin energy     =        -0.3302186104 a.u.
        total opposite-spin energy =        -1.0524146449 a.u.

 Total  RIMP2   correlation energy =        -1.3826332552 a.u.
        RIMP2         total energy =      -670.9090020219 a.u.

 RI-MP2 Energy Time:  CPU 27.10 s  wall 27.20 s
 
 --------------------------------------------------------------
 
                    Orbital Energies (a.u.)
 --------------------------------------------------------------
 
 Alpha MOs
 -- Occupied --
-91.9362 -11.2423 -11.2344 -11.2306 -11.2272 -11.2235 -11.2173 -11.2169
 -8.9406  -6.6220  -6.6213  -6.6198  -1.1901  -1.0929  -1.0217  -0.9687
 -0.9190  -0.8780  -0.7554  -0.7215  -0.6481  -0.6370  -0.6174  -0.5884
 -0.5768  -0.5579  -0.5470  -0.5399  -0.5106  -0.4970  -0.4722  -0.4638
 -0.4352  -0.3525  -0.2426
 -- Virtual --
  0.1205   0.1433   0.1600   0.1766   0.1804   0.1911   0.1999   0.2111
  0.2179   0.2218   0.2345   0.2472   0.2561   0.2599   0.2711   0.3033
  0.3139   0.3493   0.3702   0.3795   0.3844   0.3918   0.4063   0.4094
  0.4355   0.4403   0.4438   0.4565   0.4720   0.4875   0.4938   0.5077
  0.5389   0.5477   0.5640   0.5790   0.5868   0.5932   0.5997   0.6059
  0.6127   0.6254   0.6308   0.6402   0.6433   0.6536   0.6574   0.6621
  0.6714   0.6749   0.6831   0.6937   0.7315   0.7368   0.7564   0.7639
  0.7925   0.7972   0.8112   0.8321   0.8434   0.8620   0.8840   0.9002
  0.9105   0.9307   0.9385   0.9676   0.9907   0.9981   1.0129   1.0209
  1.0345   1.0597   1.0690   1.0838   1.0965   1.1111   1.1260   1.1342
  1.1370   1.1634   1.1733   1.1855   1.2079   1.2182   1.2209   1.2408
  1.2515   1.2607   1.2758   1.2912   1.3095   1.3144   1.3364   1.3452
  1.3573   1.3631   1.3746   1.3884   1.4079   1.4133   1.4233   1.4300
  1.4472   1.4620   1.4853   1.4951   1.5040   1.5167   1.5297   1.5393
  1.5447   1.5505   1.5610   1.5694   1.5855   1.5953   1.6064   1.6329
  1.6377   1.6465   1.6644   1.6959   1.7058   1.7117   1.7237   1.7364
  1.7583   1.7621   1.7810   1.8100   1.8343   1.8586   1.8693   1.8789
  1.9264   1.9338   1.9527   2.0228   2.0426   2.0735   2.1178   2.1499
  2.1856   2.2180   2.2387   2.2530   2.2844   2.3370   2.3577   2.4099
  2.4289   2.4961   2.5433   2.5755   2.5962   2.6111   2.6244   2.6292
  2.6508   2.6692   2.6977   2.7156   2.7445   2.7608   2.7838   2.7931
  2.8070   2.8188   2.8567   2.8787   2.8885   2.8961   2.9157   2.9605
  2.9972   3.0093   3.0277   3.0365   3.0704   3.0738   3.0841   3.1109
  3.1155   3.1181   3.1272   3.1341   3.1526   3.1589   3.1820   3.1900
  3.1932   3.2129   3.2211   3.2328   3.2539   3.2554   3.2759   3.2842
  3.2908   3.2955   3.3020   3.3247   3.3407   3.3439   3.3576   3.3613
  3.3737   3.3962   3.4043   3.4185   3.4279   3.4474   3.4499   3.4562
  3.4695   3.4840   3.4994   3.5260   3.5297   3.5521   3.5586   3.5868
  3.6030   3.6205   3.6270   3.6343   3.6489   3.6618   3.6758   3.6798
  3.6993   3.7205   3.7273   3.7394   3.7463   3.7649   3.7717   3.7832
  3.7943   3.8160   3.8234   3.8339   3.8433   3.8560   3.8646   3.8875
  3.9095   3.9280   3.9348   3.9662   3.9726   3.9970   4.0114   4.0362
  4.0528   4.0617   4.0795   4.0827   4.1079   4.1260   4.1329   4.1430
  4.1595   4.1799   4.1855   4.1934   4.2148   4.2301   4.2664   4.2695
  4.2751   4.2939   4.3101   4.3130   4.3312   4.3443   4.3656   4.3774
  4.3791   4.3858   4.3990   4.4142   4.4350   4.4417   4.4477   4.4748
  4.4827   4.4919   4.5004   4.5245   4.5422   4.5467   4.5797   4.6133
  4.6237   4.6414   4.6557   4.6725   4.6932   4.7182   4.7296   4.7606
  4.7651   4.8026   4.8311   4.8620   4.8819   4.8966   4.9104   4.9301
  4.9552   4.9648   4.9941   5.0280   5.0682   5.0743   5.1312   5.1437
  5.1532   5.1729   5.2134   5.2440   5.2901   5.2999   5.3532   5.3678
  5.3922   5.3946   5.4157   5.4208   5.4380   5.4685   5.4815   5.4921
  5.5186   5.5230   5.5554   5.5704   5.5836   5.5973   5.6260   5.6395
  5.6454   5.6686   5.6748   5.6876   5.7176   5.7509   5.7676   5.7697
  5.7774   5.7860   5.8084   5.8934   5.9363   6.0047   6.1442   6.1930
  6.2363   6.2453   6.2780   6.3022   6.3200   6.3406   6.3579   6.3697
  6.3960   6.5150  10.4345  13.3453  14.0749  14.3331  14.4600  15.0662
 15.3164
 --------------------------------------------------------------
 
          Ground-State Mulliken Net Atomic Charges

     Atom                 Charge (a.u.)
  ----------------------------------------
      1 C                     0.071879
      2 C                    -0.359589
      3 C                    -0.087951
      4 H                     0.176431
      5 C                     0.069353
      6 S                    -0.236195
      7 C                    -0.279145
      8 H                     0.109184
      9 H                     0.097252
     10 H                     0.099142
     11 H                     0.169371
     12 C                    -0.291928
     13 H                     0.074005
     14 H                     0.110755
     15 H                     0.108239
     16 H                     0.171789
     17 C                    -0.301524
     18 H                     0.078688
     19 H                     0.109575
     20 H                     0.110667
  ----------------------------------------
  Sum of atomic charges =     0.000000

 -----------------------------------------------------------------
                    Cartesian Multipole Moments
 -----------------------------------------------------------------
    Charge (ESU x 10^10)
                -0.0000
    Dipole Moment (Debye)
         X       1.2339      Y      -1.8753      Z      -0.0430
       Tot       2.2452
    Quadrupole Moments (Debye-Ang)
        XX     -55.6888     XY       4.5625     YY     -56.7417
        XZ       2.2849     YZ       1.1983     ZZ     -59.9436
    Octopole Moments (Debye-Ang^2)
       XXX     160.2507    XXY      32.5779    XYY      54.6281
       YYY     131.2967    XXZ      -5.8080    XYZ      -2.9787
       YYZ      -1.8631    XZZ      60.9020    YZZ      48.6656
       ZZZ      -0.1645
    Hexadecapole Moments (Debye-Ang^3)
      XXXX   -1364.8777   XXXY    -127.9678   XXYY    -359.3838
      XYYY    -135.6679   YYYY    -779.5107   XXXZ      23.6399
      XXYZ      10.1026   XYYZ       6.4588   YYYZ       6.2449
      XXZZ    -252.0689   XYZZ     -51.2454   YYZZ    -165.1613
      XZZZ      -3.9265   YZZZ      -1.2544   ZZZZ     -99.7768
 -----------------------------------------------------------------
 Total job time:  285.62s(wall), 280.34s(cpu) 
 Thu Jul  7 12:19:29 2022

        *************************************************************
        *                                                           *
        *  Thank you very much for using Q-Chem.  Have a nice day.  *
        *                                                           *
        *************************************************************


remove work dirs ./qchem291351.0 -- ./qchem291351.-1
rm -rf ./qchem291351
