
                                 *****************
                                 * O   R   C   A *
                                 *****************

           --- An Ab Initio, DFT and Semiempirical electronic structure package ---

                  #######################################################
                  #                        -***-                        #
                  #  Department of molecular theory and spectroscopy    #
                  #              Directorship: Frank Neese              #
                  # Max Planck Institute for Chemical Energy Conversion #
                  #                  D-45470 Muelheim/Ruhr              #
                  #                       Germany                       #
                  #                                                     #
                  #                  All rights reserved                #
                  #                        -***-                        #
                  #######################################################


                         Program Version 3.0.3 - RELEASE   -


 With contributions from (in alphabetic order):
   Ute Becker             : Parallelization
   Dmytro Bykov           : SCF Hessian
   Dmitry Ganyushin       : Spin-Orbit,Spin-Spin,Magnetic field MRCI
   Andreas Hansen         : Spin unrestricted coupled pair/coupled cluster methods
   Dimitrios Liakos       : Extrapolation schemes; parallel MDCI
   Robert Izsak           : Overlap fitted RIJCOSX, COSX-SCS-MP3
   Christian Kollmar      : KDIIS, OOCD, Brueckner-CCSD(T), CCSD density
   Simone Kossmann        : Meta GGA functionals, TD-DFT gradient, OOMP2, MP2 Hessian
   Taras Petrenko         : DFT Hessian,TD-DFT gradient, ASA and ECA modules, normal mode analysis, Resonance Raman, ABS, FL, XAS/XES, NRVS
   Christoph Reimann      : Effective Core Potentials
   Michael Roemelt        : Restricted open shell CIS
   Christoph Riplinger    : Improved optimizer, TS searches, QM/MM, DLPNO-CCSD
   Barbara Sandhoefer     : DKH picture change effects
   Igor Schapiro          : Molecular dynamics
   Kantharuban Sivalingam : CASSCF convergence, NEVPT2
   Boris Wezisla          : Elementary symmetry handling
   Frank Wennmohs         : Technical directorship


 We gratefully acknowledge several colleagues who have allowed us to
 interface, adapt or use parts of their codes:
   Stefan Grimme, W. Hujo, H. Kruse, T. Risthaus : VdW corrections, initial TS optimization,
                                                   DFT functionals, gCP
   Ed Valeev                                     : LibInt (2-el integral package), F12 methods
   Garnet Chan, S. Sharma, R. Olivares           : DMRG
   Ulf Ekstrom                                   : XCFun DFT Library
   Mihaly Kallay                                 : mrcc  (arbitrary order and MRCC methods)
   Andreas Klamt, Michael Diedenhofen            : otool_cosmo (COSMO solvation model)
   Frank Weinhold                                : gennbo (NPA and NBO analysis)
   Christopher J. Cramer and Donald G. Truhlar   : smd solvation model


 Your calculation uses the libint2 library for the computation of 2-el integrals
 For citations please refer to: http://libint.valeyev.net

 This ORCA versions uses:
   CBLAS   interface :  Fast vector & matrix operations
   LAPACKE interface :  Fast linear algebra routines
   SCALAPACK package :  Parallel linear algebra routines


Your calculation utilizes the basis: 6-31G
Cite in your paper:
H - He: W.J. Hehre, R. Ditchfield and J.A. Pople, J. Chem. Phys. 56,
Li - Ne: 2257 (1972).  Note: Li and B come from J.D. Dill and J.A.
         Pople, J. Chem. Phys. 62, 2921 (1975).
Na - Ar: M.M. Francl, W.J. Pietro, W.J. Hehre, J.S. Binkley, M.S. Gordon,
         D.J. DeFrees and J.A. Pople, J. Chem. Phys. 77, 3654 (1982)
K  - Zn: V. Rassolov, J.A. Pople, M. Ratner and T.L. Windus, J. Chem. Phys.
         (accepted, 1998)
Note: He and Ne are unpublished basis sets taken from the Gaussian program

Your calculation utilizes diff. fcns from basis: 6-311++G(2d,2p)
Cite in your paper:
H, Li - Ne: R. Krishnan, J.S. Binkley, R. Seeger and J.A. Pople,
            J. Chem. Phys. 72, 650 (1980)
Na - Ar:    A.D. McLean and G.S. Chandler J. Chem. Phys. 72, 5639, (1980).
K  - Ca:    J-P. Blaudeau, M. P. McGrath, L.A. Curtiss and L. Radom,
            J. Chem. Phys. 107, 5016 (1997).
Ga - Kr:    L. A. Curtiss, M. P. McGrath, J-P. Blandeau, N. E. Davis,
            R. C. Binning, Jr. L. Radom, J. Chem. Phys. 103, 6104 (1995).
H - Ar:  R. Krishnan, J.S. Binkley, R. Seeger, J.A. Pople, J. Chem. Phys. 72,650 (1980)
H, Li-Cl: T. Clark, J. Chandrasekhar, P.V.R. Schleyer, J. Comp. Chem. 4, 294 (1983)

================================================================================
                                        WARNINGS
                       Please study these warnings very carefully!
================================================================================
Now building the actual basis set

WARNING: Geometry Optimization
  ===> : Switching off AutoStart
         For restart on a previous wavefunction, please use MOREAD


INFO   : the flag for use of LIBINT has been found!

================================================================================
                                       INPUT FILE
================================================================================
NAME = BlockPedot.inp
|  1> ! RKS B3LYP 6-31+G** NormalSCF Opt NOSOSCF CHELPG PAL8
|  2> 
|  3> *xyz 0 1
|  4> H -25.84235 -0.07402 1.34308
|  5> C -25.00831 0.17269 0.67907
|  6> C -23.73875 0.60138 1.44412
|  7> H -25.34496 0.97252 0.00816
|  8> H -24.82390 -0.72016 0.07705
|  9> C -24.03103 1.86482 2.32082
| 10> C -25.28458 2.05645 2.96132
| 11> C -25.55659 3.17410 3.77853
| 12> C -24.56386 4.12181 4.00399
| 13> C -23.31427 3.96030 3.41290
| 14> C -23.05040 2.83727 2.60215
| 15> H -26.09390 1.33948 2.85751
| 16> H -26.53008 3.30537 4.24789
| 17> H -22.54039 4.70281 3.59458
| 18> H -22.03896 2.76139 2.21777
| 19> S -24.90527 5.57323 5.04629
| 20> O -26.29795 5.88713 4.73057
| 21> O -23.93419 6.56080 4.58268
| 22> O -24.67195 5.04859 6.38914
| 23> C -22.56567 0.69540 0.37329
| 24> H -23.49569 -0.19113 2.16480
| 25> C -21.50956 -0.48614 0.33166
| 26> H -22.01248 1.61017 0.59591
| 27> H -22.97421 0.88109 -0.62666
| 28> C -21.36964 -1.44035 -0.90706
| 29> H -21.70410 -1.16032 1.17540
| 30> C -22.40888 -2.31126 -1.31037
| 31> C -22.19388 -3.34159 -2.26556
| 32> C -20.12065 -1.64412 -1.56081
| 33> C -19.89757 -2.66671 -2.50243
| 34> C -20.93188 -3.52868 -2.83750
| 35> H -23.39481 -2.25490 -0.85897
| 36> H -22.99142 -4.02977 -2.54406
| 37> H -19.25033 -1.03933 -1.31278
| 38> H -18.91062 -2.81081 -2.93765
| 39> S -20.62844 -4.90691 -3.99532
| 40> O -19.30226 -4.62972 -4.53086
| 41> O -21.72536 -4.76327 -4.95427
| 42> O -20.71403 -6.07253 -3.11734
| 43> C -20.10548 0.17269 0.67907
| 44> C -18.83592 0.60138 1.44412
| 45> H -20.44213 0.97252 0.00816
| 46> H -19.92107 -0.72016 0.07705
| 47> C -19.12820 1.86482 2.32082
| 48> C -20.38175 2.05645 2.96132
| 49> C -20.65376 3.17410 3.77853
| 50> C -19.66103 4.12181 4.00399
| 51> C -18.41144 3.96030 3.41290
| 52> C -18.14757 2.83727 2.60215
| 53> H -21.19107 1.33948 2.85751
| 54> H -21.62725 3.30537 4.24789
| 55> H -17.63756 4.70281 3.59458
| 56> H -17.13613 2.76139 2.21777
| 57> S -20.00244 5.57323 5.04629
| 58> O -21.39512 5.88713 4.73057
| 59> O -19.03136 6.56080 4.58268
| 60> O -19.76912 5.04859 6.38914
| 61> C -17.66284 0.69540 0.37329
| 62> H -18.59286 -0.19113 2.16480
| 63> C -16.60673 -0.48614 0.33166
| 64> H -17.10965 1.61017 0.59591
| 65> H -18.07138 0.88109 -0.62666
| 66> C -16.46681 -1.44035 -0.90706
| 67> H -16.80127 -1.16032 1.17540
| 68> C -17.50605 -2.31126 -1.31037
| 69> C -17.29105 -3.34159 -2.26556
| 70> C -15.21782 -1.64412 -1.56081
| 71> C -14.99474 -2.66671 -2.50243
| 72> C -16.02905 -3.52868 -2.83750
| 73> H -18.49198 -2.25490 -0.85897
| 74> H -18.08859 -4.02977 -2.54406
| 75> H -14.34750 -1.03933 -1.31278
| 76> H -14.00779 -2.81081 -2.93765
| 77> S -15.72561 -4.90691 -3.99532
| 78> O -14.39943 -4.62972 -4.53086
| 79> O -16.82253 -4.76327 -4.95427
| 80> O -15.81120 -6.07253 -3.11734
| 81> C -15.20265 0.17269 0.67907
| 82> C -13.93309 0.60138 1.44412
| 83> H -15.53930 0.97252 0.00816
| 84> H -15.01824 -0.72016 0.07705
| 85> C -14.22537 1.86482 2.32082
| 86> C -15.47892 2.05645 2.96132
| 87> C -15.75093 3.17410 3.77853
| 88> C -14.75820 4.12181 4.00399
| 89> C -13.50861 3.96030 3.41290
| 90> C -13.24474 2.83727 2.60215
| 91> H -16.28824 1.33948 2.85751
| 92> H -16.72442 3.30537 4.24789
| 93> H -12.73473 4.70281 3.59458
| 94> H -12.23330 2.76139 2.21777
| 95> S -15.09961 5.57323 5.04629
| 96> O -16.49229 5.88713 4.73057
| 97> O -14.12853 6.56080 4.58268
| 98> O -14.86629 5.04859 6.38914
| 99> C -12.76001 0.69540 0.37329
|100> H -13.69003 -0.19113 2.16480
|101> C -11.70390 -0.48614 0.33166
|102> H -12.20682 1.61017 0.59591
|103> H -13.16855 0.88109 -0.62666
|104> C -11.56398 -1.44035 -0.90706
|105> H -11.89844 -1.16032 1.17540
|106> C -12.60322 -2.31126 -1.31037
|107> C -12.38822 -3.34159 -2.26556
|108> C -10.31499 -1.64412 -1.56081
|109> C -10.09191 -2.66671 -2.50243
|110> C -11.12622 -3.52868 -2.83750
|111> H -13.58915 -2.25490 -0.85897
|112> H -13.18576 -4.02977 -2.54406
|113> H -9.44467 -1.03933 -1.31278
|114> H -9.10496 -2.81081 -2.93765
|115> S -10.82278 -4.90691 -3.99532
|116> O -9.49660 -4.62972 -4.53086
|117> O -11.91970 -4.76327 -4.95427
|118> O -10.90837 -6.07253 -3.11734
|119> C -10.29982 0.17269 0.67907
|120> C -9.03026 0.60138 1.44412
|121> H -10.63647 0.97252 0.00816
|122> H -10.11541 -0.72016 0.07705
|123> C -9.32254 1.86482 2.32082
|124> C -10.57609 2.05645 2.96132
|125> C -10.84810 3.17410 3.77853
|126> C -9.85537 4.12181 4.00399
|127> C -8.60578 3.96030 3.41290
|128> C -8.34191 2.83727 2.60215
|129> H -11.38541 1.33948 2.85751
|130> H -11.82159 3.30537 4.24789
|131> H -7.83190 4.70281 3.59458
|132> H -7.33047 2.76139 2.21777
|133> S -10.19678 5.57323 5.04629
|134> O -11.58946 5.88713 4.73057
|135> O -9.22570 6.56080 4.58268
|136> O -9.96346 5.04859 6.38914
|137> C -7.85718 0.69540 0.37329
|138> H -8.78720 -0.19113 2.16480
|139> C -6.80107 -0.48614 0.33166
|140> H -7.30399 1.61017 0.59591
|141> H -8.26572 0.88109 -0.62666
|142> C -6.66115 -1.44035 -0.90706
|143> H -6.99561 -1.16032 1.17540
|144> C -7.70039 -2.31126 -1.31037
|145> C -7.48539 -3.34159 -2.26556
|146> C -5.41216 -1.64412 -1.56081
|147> C -5.18908 -2.66671 -2.50243
|148> C -6.22339 -3.52868 -2.83750
|149> H -8.68632 -2.25490 -0.85897
|150> H -8.28293 -4.02977 -2.54406
|151> H -4.54184 -1.03933 -1.31278
|152> H -4.20213 -2.81081 -2.93765
|153> S -5.91995 -4.90691 -3.99532
|154> O -4.59377 -4.62972 -4.53086
|155> O -7.01687 -4.76327 -4.95427
|156> O -6.00554 -6.07253 -3.11734
|157> C -5.39699 0.17269 0.67907
|158> C -4.17994 1.07147 0.77033
|159> H -5.36088 -0.60709 1.44680
|160> H -5.42899 -0.33490 -0.29054
|161> O -3.00882 0.26669 0.64507
|162> H -4.17082 1.58519 1.73789
|163> H -4.20626 1.81670 -0.03219
|164> C -1.82438 1.06176 0.70588
|165> C -0.59661 0.15997 0.64329
|166> H -1.80725 1.64279 1.63569
|167> H -1.80784 1.77015 -0.13095
|168> O 0.58003 0.96546 0.71894
|169> H -0.60112 -0.41355 -0.29119
|170> H -0.61769 -0.55438 1.47502
|171> H 4.53033 2.64260 3.43028
|172> C 3.05343 0.84302 1.19389
|173> H 3.64889 1.67490 -3.61686
|174> C 1.75888 0.17269 0.67907
|175> H 1.89051 -0.92044 0.53607
|176> H 1.50379 0.62039 -0.31202
|177> C 2.46755 2.37193 1.56095
|178> O 2.88472 3.29214 0.86621
|179> O 1.44181 2.68458 2.55119
|180> C 0.36720 3.71834 2.66832
|181> C 0.04425 4.68044 4.03397
|182> H -0.57325 3.13462 2.56549
|183> H 0.40631 4.37760 1.77768
|184> O -1.24670 5.47783 4.12552
|185> H 0.89909 5.37961 4.13768
|186> H 0.05432 3.99229 4.90471
|187> C -1.40099 6.48458 5.24917
|188> C -2.88957 7.23750 5.60153
|189> H -0.69966 7.31482 5.02936
|190> H -1.07534 5.99964 6.19236
|191> O -2.97241 8.29387 6.68525
|192> H -3.60410 6.42524 5.85872
|193> H -3.24306 7.69978 4.65505
|194> C -4.31421 8.92614 6.99623
|195> C -4.42648 10.16156 8.15816
|196> H -5.00106 8.11925 7.33170
|197> H -4.72752 9.34347 6.05284
|198> O -5.74563 10.81280 8.51180
|199> H -3.74341 10.96423 7.81173
|200> H -4.00934 9.73434 9.09337
|201> C -5.71407 11.91423 9.54850
|202> O -7.03821 13.81671 11.06712
|203> C -8.32272 14.47672 11.49849
|204> C -8.28236 15.73906 12.61012
|205> H -8.97950 13.69796 11.94147
|206> H -8.83034 14.87679 10.59491
|207> O -9.55813 16.39212 13.05465
|208> H -7.63659 16.52742 12.16923
|209> H -7.77561 15.34517 13.51598
|210> C -9.41973 17.51841 14.03520
|211> C -10.77942 18.29030 14.61303
|212> H -8.79821 18.31166 13.56852
|213> H -8.88501 17.13878 14.93113
|214> O -10.59290 19.40537 15.58308
|215> H -11.41632 17.51861 15.09587
|216> H -11.32939 18.69116 13.73449
|217> C -11.83951 20.04059 16.09066
|218> C -11.69233 21.28170 17.16090
|219> H -12.45509 19.26790 16.59858
|220> H -12.41789 20.44140 15.23031
|221> O -12.94036 21.88428 17.67007
|222> H -11.09863 22.07997 16.66517
|223> H -11.11540 20.90192 18.03081
|224> C -12.73098 23.00092 18.61031
|225> C -14.05299 23.67712 19.25690
|226> H -12.18931 23.82047 18.09012
|227> H -12.11660 22.65143 19.46758
|228> O -13.78574 24.78286 20.17234
|229> H -14.61170 22.88497 19.80133
|230> H -14.68897 24.05821 18.42801
|231> C -14.98061 25.27264 20.84911
|232> C -14.73589 26.52430 21.79792
|233> H -15.40097 24.46951 21.49225
|234> H -15.74587 25.58626 20.10461
|235> O -15.92263 26.94010 22.50761
|236> H -14.35841 27.36452 21.17189
|237> H -13.96130 26.25008 22.54673
|238> C -15.71719 28.19528 23.18344
|239> C -16.84915 28.55106 24.19617
|240> H -15.68467 29.02042 22.43755
|241> H -14.77016 28.18588 23.76924
|242> O -16.58660 29.82454 24.77423
|243> H -16.88504 27.76948 24.98919
|244> H -17.82301 28.58891 23.65836
|245> C -17.50781 30.11769 25.81360
|246> H -18.56547 29.92251 25.52648
|247> H -17.45720 31.20642 26.04364
|248> H -17.24122 29.58147 26.75066
|249> C -7.12281 12.71423 10.04176
|250> H -7.58419 13.14147 9.12596
|251> H -7.81221 11.93649 10.43477
|252> H -5.03658 12.70857 9.17256
|253> H -5.27011 11.49322 10.47458
|254> C 4.26002 0.35249 0.03893
|255> H 3.31620 0.35163 2.15523
|256> C 5.63166 -0.66733 0.11613
|257> H 4.47423 1.21198 -0.62783
|258> H 3.69321 -0.31024 -0.63995
|259> C 6.12266 -1.50748 -1.26282
|260> H 5.39679 -1.45239 0.86722
|261> O 7.20299 -2.47675 -1.48023
|262> C 7.38059 -3.37537 -2.66747
|263> O 5.42305 -1.27641 -2.23701
|264> C 8.70620 -4.40006 -3.04683
|265> H 7.27378 -2.73014 -3.56079
|266> H 6.50802 -4.05542 -2.64164
|267> O 8.61544 -5.31020 -4.27616
|268> H 8.89151 -5.03796 -2.15494
|269> H 9.59705 -3.73997 -3.15715
|270> C 9.78128 -6.19106 -4.73326
|271> C 9.58681 -7.29488 -6.06060
|272> H 10.12162 -6.78486 -3.85642
|273> H 10.62227 -5.51165 -4.99750
|274> O 10.67160 -8.22423 -6.63887
|275> H 9.24040 -6.65283 -6.89468
|276> H 8.74366 -7.94236 -5.74979
|277> C 10.31439 -9.15865 -7.81303
|278> C 11.41088 -10.27508 -8.60410
|279> H 9.93326 -8.50431 -8.62289
|280> H 9.47072 -9.78420 -7.46011
|281> O 10.99477 -11.20566 -9.77194
|282> H 11.81062 -10.92139 -7.79367
|283> H 12.25984 -9.65314 -8.96216
|284> C 11.98894 -12.18205 -10.45158
|285> C 11.55746 -13.27246 -11.76923
|286> H 12.40532 -12.82676 -9.64850
|287> H 12.83249 -11.56694 -10.83229
|288> O 12.50735 -14.27231 -12.48528
|289> H 11.14831 -12.60868 -12.55770
|290> H 10.71484 -13.87193 -11.36970
|291> C 11.99954 -15.18242 -13.63815
|292> C 12.95993 -16.36315 -14.53244
|293> H 11.59069 -14.50478 -14.41521
|294> H 11.14925 -15.76345 -13.22702
|295> O 12.41442 -17.25605 -15.67774
|296> H 13.37831 -17.04955 -13.76639
|297> H 13.81615 -15.79459 -14.95326
|298> C 13.31244 -18.27742 -16.42263
|299> C 12.76521 -19.31899 -17.72243
|300> H 13.72860 -18.96655 -15.65792
|301> H 14.16829 -17.71215 -16.84829
|302> O 13.65594 -20.33533 -18.46139
|303> H 12.35609 -18.64068 -18.49926
|304> H 11.91357 -19.89583 -17.30691
|305> C 13.06559 -21.19875 -19.59017
|306> C 13.96118 -22.37233 -20.48779
|307> H 12.66069 -20.50970 -20.35986
|308> H 12.21234 -21.76598 -19.16453
|309> O 13.31350 -23.19276 -21.59258
|310> H 14.37549 -23.09551 -19.75356
|311> H 14.82232 -21.84170 -20.94689
|312> C 14.15751 -24.21041 -22.34020
|313> C 13.49984 -25.15215 -23.57753
|314> H 14.56258 -24.94037 -21.60751
|315> H 15.01743 -23.68342 -22.80575
|316> O 14.36462 -26.14446 -24.28703
|317> H 13.10113 -24.45928 -24.34854
|318> H 12.64417 -25.71571 -23.14910
|319> C 13.69643 -26.92903 -25.36668
|320> C 14.56499 -28.04492 -26.19533
|321> H 13.31009 -26.23265 -26.14113
|322> H 12.84148 -27.49240 -24.93598
|323> O 13.83024 -28.76935 -27.23747
|324> H 14.95987 -28.79341 -25.47364
|325> H 15.42758 -27.53532 -26.67841
|326> C 14.65305 -29.75177 -27.93843
|327> C 13.93137 -30.58339 -29.08122
|328> H 15.03921 -30.51058 -27.22253
|329> H 15.51096 -29.24934 -28.43759
|330> O 14.84908 -31.50612 -29.67602
|331> H 13.55359 -29.89277 -29.86861
|332> H 13.07790 -31.15312 -28.64952
|333> C 14.24307 -32.27374 -30.71470
|334> H 13.40083 -32.90242 -30.34874
|335> H 14.99102 -32.99570 -31.12317
|336> H 13.93424 -31.64890 -31.58230
|337> H 2.93004 -7.71497 -8.39054
|338> H 9.56809 2.64260 3.43028
|339> C 8.09119 0.84302 1.19389
|340> H 8.68665 1.67490 -3.61686
|341> C 6.79664 0.17269 0.67907
|342> H 6.92827 -0.92044 0.53607
|343> H 6.54155 0.62039 -0.31202
|344> C 7.50531 2.37193 1.56095
|345> O 7.92248 3.29214 0.86621
|346> O 6.47957 2.68458 2.55119
|347> C 5.40496 3.71834 2.66832
|348> C 5.08201 4.68044 4.03397
|349> H 4.46451 3.13462 2.56549
|350> H 5.44407 4.37760 1.77768
|351> O 3.79106 5.47783 4.12552
|352> H 5.93685 5.37961 4.13768
|353> H 5.09208 3.99229 4.90471
|354> C 3.63677 6.48458 5.24917
|355> C 2.14819 7.23750 5.60153
|356> H 4.33810 7.31482 5.02936
|357> H 3.96242 5.99964 6.19236
|358> O 2.06535 8.29387 6.68525
|359> H 1.43366 6.42524 5.85872
|360> H 1.79470 7.69978 4.65505
|361> C 0.72355 8.92614 6.99623
|362> C 0.61128 10.16156 8.15816
|363> H 0.03670 8.11925 7.33170
|364> H 0.31024 9.34347 6.05284
|365> O -0.70787 10.81280 8.51180
|366> H 1.29435 10.96423 7.81173
|367> H 1.02842 9.73434 9.09337
|368> C -0.67631 11.91423 9.54850
|369> O -2.00045 13.81671 11.06712
|370> C -3.28496 14.47672 11.49849
|371> C -3.24460 15.73906 12.61012
|372> H -3.94174 13.69796 11.94147
|373> H -3.79258 14.87679 10.59491
|374> O -4.52037 16.39212 13.05465
|375> H -2.59883 16.52742 12.16923
|376> H -2.73785 15.34517 13.51598
|377> C -4.38197 17.51841 14.03520
|378> C -5.74166 18.29030 14.61303
|379> H -3.76045 18.31166 13.56852
|380> H -3.84725 17.13878 14.93113
|381> O -5.55514 19.40537 15.58308
|382> H -6.37856 17.51861 15.09587
|383> H -6.29163 18.69116 13.73449
|384> C -6.80175 20.04059 16.09066
|385> C -6.65457 21.28170 17.16090
|386> H -7.41733 19.26790 16.59858
|387> H -7.38013 20.44140 15.23031
|388> O -7.90260 21.88428 17.67007
|389> H -6.06087 22.07997 16.66517
|390> H -6.07764 20.90192 18.03081
|391> C -7.69322 23.00092 18.61031
|392> C -9.01523 23.67712 19.25690
|393> H -7.15155 23.82047 18.09012
|394> H -7.07884 22.65143 19.46758
|395> O -8.74798 24.78286 20.17234
|396> H -9.57394 22.88497 19.80133
|397> H -9.65121 24.05821 18.42801
|398> C -9.94285 25.27264 20.84911
|399> C -9.69813 26.52430 21.79792
|400> H -10.36321 24.46951 21.49225
|401> H -10.70811 25.58626 20.10461
|402> O -10.88487 26.94010 22.50761
|403> H -9.32065 27.36452 21.17189
|404> H -8.92354 26.25008 22.54673
|405> C -10.67943 28.19528 23.18344
|406> C -11.81139 28.55106 24.19617
|407> H -10.64691 29.02042 22.43755
|408> H -9.73240 28.18588 23.76924
|409> O -11.54884 29.82454 24.77423
|410> H -11.84728 27.76948 24.98919
|411> H -12.78525 28.58891 23.65836
|412> C -12.47005 30.11769 25.81360
|413> H -13.52771 29.92251 25.52648
|414> H -12.41944 31.20642 26.04364
|415> H -12.20346 29.58147 26.75066
|416> C -2.08505 12.71423 10.04176
|417> H -2.54643 13.14147 9.12596
|418> H -2.77445 11.93649 10.43477
|419> H 0.00118 12.70857 9.17256
|420> H -0.23235 11.49322 10.47458
|421> C 9.29778 0.35249 0.03893
|422> H 8.35396 0.35163 2.15523
|423> C 10.66942 -0.66733 0.11613
|424> H 9.51199 1.21198 -0.62783
|425> H 8.73097 -0.31024 -0.63995
|426> C 11.16042 -1.50748 -1.26282
|427> H 10.43455 -1.45239 0.86722
|428> O 12.24075 -2.47675 -1.48023
|429> C 12.41835 -3.37537 -2.66747
|430> O 10.46081 -1.27641 -2.23701
|431> C 13.74396 -4.40006 -3.04683
|432> H 12.31154 -2.73014 -3.56079
|433> H 11.54578 -4.05542 -2.64164
|434> O 13.65320 -5.31020 -4.27616
|435> H 13.92927 -5.03796 -2.15494
|436> H 14.63481 -3.73997 -3.15715
|437> C 14.81904 -6.19106 -4.73326
|438> C 14.62457 -7.29488 -6.06060
|439> H 15.15938 -6.78486 -3.85642
|440> H 15.66003 -5.51165 -4.99750
|441> O 15.70936 -8.22423 -6.63887
|442> H 14.27816 -6.65283 -6.89468
|443> H 13.78142 -7.94236 -5.74979
|444> C 15.35215 -9.15865 -7.81303
|445> C 16.44864 -10.27508 -8.60410
|446> H 14.97102 -8.50431 -8.62289
|447> H 14.50848 -9.78420 -7.46011
|448> O 16.03253 -11.20566 -9.77194
|449> H 16.84838 -10.92139 -7.79367
|450> H 17.29760 -9.65314 -8.96216
|451> C 17.02670 -12.18205 -10.45158
|452> C 16.59522 -13.27246 -11.76923
|453> H 17.44308 -12.82676 -9.64850
|454> H 17.87025 -11.56694 -10.83229
|455> O 17.54511 -14.27231 -12.48528
|456> H 16.18607 -12.60868 -12.55770
|457> H 15.75260 -13.87193 -11.36970
|458> C 17.03730 -15.18242 -13.63815
|459> C 17.99769 -16.36315 -14.53244
|460> H 16.62845 -14.50478 -14.41521
|461> H 16.18701 -15.76345 -13.22702
|462> O 17.45218 -17.25605 -15.67774
|463> H 18.41607 -17.04955 -13.76639
|464> H 18.85391 -15.79459 -14.95326
|465> C 18.35020 -18.27742 -16.42263
|466> C 17.80297 -19.31899 -17.72243
|467> H 18.76636 -18.96655 -15.65792
|468> H 19.20605 -17.71215 -16.84829
|469> O 18.69370 -20.33533 -18.46139
|470> H 17.39385 -18.64068 -18.49926
|471> H 16.95133 -19.89583 -17.30691
|472> C 18.10335 -21.19875 -19.59017
|473> C 18.99894 -22.37233 -20.48779
|474> H 17.69845 -20.50970 -20.35986
|475> H 17.25010 -21.76598 -19.16453
|476> O 18.35126 -23.19276 -21.59258
|477> H 19.41325 -23.09551 -19.75356
|478> H 19.86008 -21.84170 -20.94689
|479> C 19.19527 -24.21041 -22.34020
|480> C 18.53760 -25.15215 -23.57753
|481> H 19.60034 -24.94037 -21.60751
|482> H 20.05519 -23.68342 -22.80575
|483> O 19.40238 -26.14446 -24.28703
|484> H 18.13889 -24.45928 -24.34854
|485> H 17.68193 -25.71571 -23.14910
|486> C 18.73419 -26.92903 -25.36668
|487> C 19.60275 -28.04492 -26.19533
|488> H 18.34785 -26.23265 -26.14113
|489> H 17.87924 -27.49240 -24.93598
|490> O 18.86800 -28.76935 -27.23747
|491> H 19.99763 -28.79341 -25.47364
|492> H 20.46534 -27.53532 -26.67841
|493> C 19.69081 -29.75177 -27.93843
|494> C 18.96913 -30.58339 -29.08122
|495> H 20.07697 -30.51058 -27.22253
|496> H 20.54872 -29.24934 -28.43759
|497> O 19.88684 -31.50612 -29.67602
|498> H 18.59135 -29.89277 -29.86861
|499> H 18.11566 -31.15312 -28.64952
|500> C 19.28083 -32.27374 -30.71470
|501> H 18.43859 -32.90242 -30.34874
|502> H 20.02878 -32.99570 -31.12317
|503> H 18.97200 -31.64890 -31.58230
|504> H 7.96780 -7.71497 -8.39054
|505> H 14.60585 2.64260 3.43028
|506> C 13.12895 0.84302 1.19389
|507> H 13.72441 1.67490 -3.61686
|508> C 11.83440 0.17269 0.67907
|509> H 11.96603 -0.92044 0.53607
|510> H 11.57931 0.62039 -0.31202
|511> C 12.54307 2.37193 1.56095
|512> O 12.96024 3.29214 0.86621
|513> O 11.51733 2.68458 2.55119
|514> C 10.44272 3.71834 2.66832
|515> C 10.11977 4.68044 4.03397
|516> H 9.50227 3.13462 2.56549
|517> H 10.48183 4.37760 1.77768
|518> O 8.82882 5.47783 4.12552
|519> H 10.97461 5.37961 4.13768
|520> H 10.12984 3.99229 4.90471
|521> C 8.67453 6.48458 5.24917
|522> C 7.18595 7.23750 5.60153
|523> H 9.37586 7.31482 5.02936
|524> H 9.00018 5.99964 6.19236
|525> O 7.10311 8.29387 6.68525
|526> H 6.47142 6.42524 5.85872
|527> H 6.83246 7.69978 4.65505
|528> C 5.76131 8.92614 6.99623
|529> C 5.64904 10.16156 8.15816
|530> H 5.07446 8.11925 7.33170
|531> H 5.34800 9.34347 6.05284
|532> O 4.32989 10.81280 8.51180
|533> H 6.33211 10.96423 7.81173
|534> H 6.06618 9.73434 9.09337
|535> C 4.36145 11.91423 9.54850
|536> O 3.03731 13.81671 11.06712
|537> C 1.75280 14.47672 11.49849
|538> C 1.79316 15.73906 12.61012
|539> H 1.09602 13.69796 11.94147
|540> H 1.24518 14.87679 10.59491
|541> O 0.51739 16.39212 13.05465
|542> H 2.43893 16.52742 12.16923
|543> H 2.29991 15.34517 13.51598
|544> C 0.65579 17.51841 14.03520
|545> C -0.70390 18.29030 14.61303
|546> H 1.27731 18.31166 13.56852
|547> H 1.19051 17.13878 14.93113
|548> O -0.51738 19.40537 15.58308
|549> H -1.34080 17.51861 15.09587
|550> H -1.25387 18.69116 13.73449
|551> C -1.76399 20.04059 16.09066
|552> C -1.61681 21.28170 17.16090
|553> H -2.37957 19.26790 16.59858
|554> H -2.34237 20.44140 15.23031
|555> O -2.86484 21.88428 17.67007
|556> H -1.02311 22.07997 16.66517
|557> H -1.03988 20.90192 18.03081
|558> C -2.65546 23.00092 18.61031
|559> C -3.97747 23.67712 19.25690
|560> H -2.11379 23.82047 18.09012
|561> H -2.04108 22.65143 19.46758
|562> O -3.71022 24.78286 20.17234
|563> H -4.53618 22.88497 19.80133
|564> H -4.61345 24.05821 18.42801
|565> C -4.90509 25.27264 20.84911
|566> C -4.66037 26.52430 21.79792
|567> H -5.32545 24.46951 21.49225
|568> H -5.67035 25.58626 20.10461
|569> O -5.84711 26.94010 22.50761
|570> H -4.28289 27.36452 21.17189
|571> H -3.88578 26.25008 22.54673
|572> C -5.64167 28.19528 23.18344
|573> C -6.77363 28.55106 24.19617
|574> H -5.60915 29.02042 22.43755
|575> H -4.69464 28.18588 23.76924
|576> O -6.51108 29.82454 24.77423
|577> H -6.80952 27.76948 24.98919
|578> H -7.74749 28.58891 23.65836
|579> C -7.43229 30.11769 25.81360
|580> H -8.48995 29.92251 25.52648
|581> H -7.38168 31.20642 26.04364
|582> H -7.16570 29.58147 26.75066
|583> C 2.95271 12.71423 10.04176
|584> H 2.49133 13.14147 9.12596
|585> H 2.26331 11.93649 10.43477
|586> H 5.03894 12.70857 9.17256
|587> H 4.80541 11.49322 10.47458
|588> C 14.33554 0.35249 0.03893
|589> H 13.39172 0.35163 2.15523
|590> C 15.70718 -0.66733 0.11613
|591> H 14.54975 1.21198 -0.62783
|592> H 13.76873 -0.31024 -0.63995
|593> C 16.19818 -1.50748 -1.26282
|594> H 15.47231 -1.45239 0.86722
|595> O 17.27851 -2.47675 -1.48023
|596> C 17.45611 -3.37537 -2.66747
|597> O 15.49857 -1.27641 -2.23701
|598> C 18.78172 -4.40006 -3.04683
|599> H 17.34930 -2.73014 -3.56079
|600> H 16.58354 -4.05542 -2.64164
|601> O 18.69096 -5.31020 -4.27616
|602> H 18.96703 -5.03796 -2.15494
|603> H 19.67257 -3.73997 -3.15715
|604> C 19.85680 -6.19106 -4.73326
|605> C 19.66233 -7.29488 -6.06060
|606> H 20.19714 -6.78486 -3.85642
|607> H 20.69779 -5.51165 -4.99750
|608> O 20.74712 -8.22423 -6.63887
|609> H 19.31592 -6.65283 -6.89468
|610> H 18.81918 -7.94236 -5.74979
|611> C 20.38991 -9.15865 -7.81303
|612> C 21.48640 -10.27508 -8.60410
|613> H 20.00878 -8.50431 -8.62289
|614> H 19.54624 -9.78420 -7.46011
|615> O 21.07029 -11.20566 -9.77194
|616> H 21.88614 -10.92139 -7.79367
|617> H 22.33536 -9.65314 -8.96216
|618> C 22.06446 -12.18205 -10.45158
|619> C 21.63298 -13.27246 -11.76923
|620> H 22.48084 -12.82676 -9.64850
|621> H 22.90801 -11.56694 -10.83229
|622> O 22.58287 -14.27231 -12.48528
|623> H 21.22383 -12.60868 -12.55770
|624> H 20.79036 -13.87193 -11.36970
|625> C 22.07506 -15.18242 -13.63815
|626> C 23.03545 -16.36315 -14.53244
|627> H 21.66621 -14.50478 -14.41521
|628> H 21.22477 -15.76345 -13.22702
|629> O 22.48994 -17.25605 -15.67774
|630> H 23.45383 -17.04955 -13.76639
|631> H 23.89167 -15.79459 -14.95326
|632> C 23.38796 -18.27742 -16.42263
|633> C 22.84073 -19.31899 -17.72243
|634> H 23.80412 -18.96655 -15.65792
|635> H 24.24381 -17.71215 -16.84829
|636> O 23.73146 -20.33533 -18.46139
|637> H 22.43161 -18.64068 -18.49926
|638> H 21.98909 -19.89583 -17.30691
|639> C 23.14111 -21.19875 -19.59017
|640> C 24.03670 -22.37233 -20.48779
|641> H 22.73621 -20.50970 -20.35986
|642> H 22.28786 -21.76598 -19.16453
|643> O 23.38902 -23.19276 -21.59258
|644> H 24.45101 -23.09551 -19.75356
|645> H 24.89784 -21.84170 -20.94689
|646> C 24.23303 -24.21041 -22.34020
|647> C 23.57536 -25.15215 -23.57753
|648> H 24.63810 -24.94037 -21.60751
|649> H 25.09295 -23.68342 -22.80575
|650> O 24.44014 -26.14446 -24.28703
|651> H 23.17665 -24.45928 -24.34854
|652> H 22.71969 -25.71571 -23.14910
|653> C 23.77195 -26.92903 -25.36668
|654> C 24.64051 -28.04492 -26.19533
|655> H 23.38561 -26.23265 -26.14113
|656> H 22.91700 -27.49240 -24.93598
|657> O 23.90576 -28.76935 -27.23747
|658> H 25.03539 -28.79341 -25.47364
|659> H 25.50310 -27.53532 -26.67841
|660> C 24.72857 -29.75177 -27.93843
|661> C 24.00689 -30.58339 -29.08122
|662> H 25.11473 -30.51058 -27.22253
|663> H 25.58648 -29.24934 -28.43759
|664> O 24.92460 -31.50612 -29.67602
|665> H 23.62911 -29.89277 -29.86861
|666> H 23.15342 -31.15312 -28.64952
|667> C 24.31859 -32.27374 -30.71470
|668> H 23.47635 -32.90242 -30.34874
|669> H 25.06654 -32.99570 -31.12317
|670> H 24.00976 -31.64890 -31.58230
|671> H 13.00556 -7.71497 -8.39054
|672> H 19.64361 2.64260 3.43028
|673> C 18.16671 0.84302 1.19389
|674> H 18.76217 1.67490 -3.61686
|675> C 16.87216 0.17269 0.67907
|676> H 17.00379 -0.92044 0.53607
|677> H 16.61707 0.62039 -0.31202
|678> C 17.58083 2.37193 1.56095
|679> O 17.99800 3.29214 0.86621
|680> O 16.55509 2.68458 2.55119
|681> C 15.48048 3.71834 2.66832
|682> C 15.15753 4.68044 4.03397
|683> H 14.54003 3.13462 2.56549
|684> H 15.51959 4.37760 1.77768
|685> O 13.86658 5.47783 4.12552
|686> H 16.01237 5.37961 4.13768
|687> H 15.16760 3.99229 4.90471
|688> C 13.71229 6.48458 5.24917
|689> C 12.22371 7.23750 5.60153
|690> H 14.41362 7.31482 5.02936
|691> H 14.03794 5.99964 6.19236
|692> O 12.14087 8.29387 6.68525
|693> H 11.50918 6.42524 5.85872
|694> H 11.87022 7.69978 4.65505
|695> C 10.79907 8.92614 6.99623
|696> C 10.68680 10.16156 8.15816
|697> H 10.11222 8.11925 7.33170
|698> H 10.38576 9.34347 6.05284
|699> O 9.36765 10.81280 8.51180
|700> H 11.36987 10.96423 7.81173
|701> H 11.10394 9.73434 9.09337
|702> C 9.39921 11.91423 9.54850
|703> O 8.07507 13.81671 11.06712
|704> C 6.79056 14.47672 11.49849
|705> C 6.83092 15.73906 12.61012
|706> H 6.13378 13.69796 11.94147
|707> H 6.28294 14.87679 10.59491
|708> O 5.55515 16.39212 13.05465
|709> H 7.47669 16.52742 12.16923
|710> H 7.33767 15.34517 13.51598
|711> C 5.69355 17.51841 14.03520
|712> C 4.33386 18.29030 14.61303
|713> H 6.31507 18.31166 13.56852
|714> H 6.22827 17.13878 14.93113
|715> O 4.52038 19.40537 15.58308
|716> H 3.69696 17.51861 15.09587
|717> H 3.78389 18.69116 13.73449
|718> C 3.27377 20.04059 16.09066
|719> C 3.42095 21.28170 17.16090
|720> H 2.65819 19.26790 16.59858
|721> H 2.69539 20.44140 15.23031
|722> O 2.17292 21.88428 17.67007
|723> H 4.01465 22.07997 16.66517
|724> H 3.99788 20.90192 18.03081
|725> C 2.38230 23.00092 18.61031
|726> C 1.06029 23.67712 19.25690
|727> H 2.92397 23.82047 18.09012
|728> H 2.99668 22.65143 19.46758
|729> O 1.32754 24.78286 20.17234
|730> H 0.50158 22.88497 19.80133
|731> H 0.42431 24.05821 18.42801
|732> C 0.13267 25.27264 20.84911
|733> C 0.37739 26.52430 21.79792
|734> H -0.28769 24.46951 21.49225
|735> H -0.63259 25.58626 20.10461
|736> O -0.80935 26.94010 22.50761
|737> H 0.75487 27.36452 21.17189
|738> H 1.15198 26.25008 22.54673
|739> C -0.60391 28.19528 23.18344
|740> C -1.73587 28.55106 24.19617
|741> H -0.57139 29.02042 22.43755
|742> H 0.34312 28.18588 23.76924
|743> O -1.47332 29.82454 24.77423
|744> H -1.77176 27.76948 24.98919
|745> H -2.70973 28.58891 23.65836
|746> C -2.39453 30.11769 25.81360
|747> H -3.45219 29.92251 25.52648
|748> H -2.34392 31.20642 26.04364
|749> H -2.12794 29.58147 26.75066
|750> C 7.99047 12.71423 10.04176
|751> H 7.52909 13.14147 9.12596
|752> H 7.30107 11.93649 10.43477
|753> H 10.07670 12.70857 9.17256
|754> H 9.84317 11.49322 10.47458
|755> C 19.37330 0.35249 0.03893
|756> H 18.42948 0.35163 2.15523
|757> C 20.74494 -0.66733 0.11613
|758> H 19.58751 1.21198 -0.62783
|759> H 18.80649 -0.31024 -0.63995
|760> C 21.23594 -1.50748 -1.26282
|761> H 20.51007 -1.45239 0.86722
|762> O 22.31627 -2.47675 -1.48023
|763> C 22.49387 -3.37537 -2.66747
|764> O 20.53633 -1.27641 -2.23701
|765> C 23.81948 -4.40006 -3.04683
|766> H 22.38706 -2.73014 -3.56079
|767> H 21.62130 -4.05542 -2.64164
|768> O 23.72872 -5.31020 -4.27616
|769> H 24.00479 -5.03796 -2.15494
|770> H 24.71033 -3.73997 -3.15715
|771> C 24.89456 -6.19106 -4.73326
|772> C 24.70009 -7.29488 -6.06060
|773> H 25.23490 -6.78486 -3.85642
|774> H 25.73555 -5.51165 -4.99750
|775> O 25.78488 -8.22423 -6.63887
|776> H 24.35368 -6.65283 -6.89468
|777> H 23.85694 -7.94236 -5.74979
|778> C 25.42767 -9.15865 -7.81303
|779> C 26.52416 -10.27508 -8.60410
|780> H 25.04654 -8.50431 -8.62289
|781> H 24.58400 -9.78420 -7.46011
|782> O 26.10805 -11.20566 -9.77194
|783> H 26.92390 -10.92139 -7.79367
|784> H 27.37312 -9.65314 -8.96216
|785> C 27.10222 -12.18205 -10.45158
|786> C 26.67074 -13.27246 -11.76923
|787> H 27.51860 -12.82676 -9.64850
|788> H 27.94577 -11.56694 -10.83229
|789> O 27.62063 -14.27231 -12.48528
|790> H 26.26159 -12.60868 -12.55770
|791> H 25.82812 -13.87193 -11.36970
|792> C 27.11282 -15.18242 -13.63815
|793> C 28.07321 -16.36315 -14.53244
|794> H 26.70397 -14.50478 -14.41521
|795> H 26.26253 -15.76345 -13.22702
|796> O 27.52770 -17.25605 -15.67774
|797> H 28.49159 -17.04955 -13.76639
|798> H 28.92943 -15.79459 -14.95326
|799> C 28.42572 -18.27742 -16.42263
|800> C 27.87849 -19.31899 -17.72243
|801> H 28.84188 -18.96655 -15.65792
|802> H 29.28157 -17.71215 -16.84829
|803> O 28.76922 -20.33533 -18.46139
|804> H 27.46937 -18.64068 -18.49926
|805> H 27.02685 -19.89583 -17.30691
|806> C 28.17887 -21.19875 -19.59017
|807> C 29.07446 -22.37233 -20.48779
|808> H 27.77397 -20.50970 -20.35986
|809> H 27.32562 -21.76598 -19.16453
|810> O 28.42678 -23.19276 -21.59258
|811> H 29.48877 -23.09551 -19.75356
|812> H 29.93560 -21.84170 -20.94689
|813> C 29.27079 -24.21041 -22.34020
|814> C 28.61312 -25.15215 -23.57753
|815> H 29.67586 -24.94037 -21.60751
|816> H 30.13071 -23.68342 -22.80575
|817> O 29.47790 -26.14446 -24.28703
|818> H 28.21441 -24.45928 -24.34854
|819> H 27.75745 -25.71571 -23.14910
|820> C 28.80971 -26.92903 -25.36668
|821> C 29.67827 -28.04492 -26.19533
|822> H 28.42337 -26.23265 -26.14113
|823> H 27.95476 -27.49240 -24.93598
|824> O 28.94352 -28.76935 -27.23747
|825> H 30.07315 -28.79341 -25.47364
|826> H 30.54086 -27.53532 -26.67841
|827> C 29.76633 -29.75177 -27.93843
|828> C 29.04465 -30.58339 -29.08122
|829> H 30.15249 -30.51058 -27.22253
|830> H 30.62424 -29.24934 -28.43759
|831> O 29.96236 -31.50612 -29.67602
|832> H 28.66687 -29.89277 -29.86861
|833> H 28.19118 -31.15312 -28.64952
|834> C 29.35635 -32.27374 -30.71470
|835> H 28.51411 -32.90242 -30.34874
|836> H 30.10430 -32.99570 -31.12317
|837> H 29.04752 -31.64890 -31.58230
|838> H 18.04332 -7.71497 -8.39054
|839> H 24.68137 2.64260 3.43028
|840> C 23.20447 0.84302 1.19389
|841> H 23.79993 1.67490 -3.61686
|842> C 21.90992 0.17269 0.67907
|843> H 22.04155 -0.92044 0.53607
|844> H 21.65483 0.62039 -0.31202
|845> C 22.61859 2.37193 1.56095
|846> O 23.03576 3.29214 0.86621
|847> O 21.59285 2.68458 2.55119
|848> C 20.51824 3.71834 2.66832
|849> C 20.19529 4.68044 4.03397
|850> H 19.57779 3.13462 2.56549
|851> H 20.55735 4.37760 1.77768
|852> O 18.90434 5.47783 4.12552
|853> H 21.05013 5.37961 4.13768
|854> H 20.20536 3.99229 4.90471
|855> C 18.75005 6.48458 5.24917
|856> C 17.26147 7.23750 5.60153
|857> H 19.45138 7.31482 5.02936
|858> H 19.07570 5.99964 6.19236
|859> O 17.17863 8.29387 6.68525
|860> H 16.54694 6.42524 5.85872
|861> H 16.90798 7.69978 4.65505
|862> C 15.83683 8.92614 6.99623
|863> C 15.72456 10.16156 8.15816
|864> H 15.14998 8.11925 7.33170
|865> H 15.42352 9.34347 6.05284
|866> O 14.40541 10.81280 8.51180
|867> H 16.40763 10.96423 7.81173
|868> H 16.14170 9.73434 9.09337
|869> C 14.43697 11.91423 9.54850
|870> O 13.11283 13.81671 11.06712
|871> C 11.82832 14.47672 11.49849
|872> C 11.86868 15.73906 12.61012
|873> H 11.17154 13.69796 11.94147
|874> H 11.32070 14.87679 10.59491
|875> O 10.59291 16.39212 13.05465
|876> H 12.51445 16.52742 12.16923
|877> H 12.37543 15.34517 13.51598
|878> C 10.73131 17.51841 14.03520
|879> C 9.37162 18.29030 14.61303
|880> H 11.35283 18.31166 13.56852
|881> H 11.26603 17.13878 14.93113
|882> O 9.55814 19.40537 15.58308
|883> H 8.73472 17.51861 15.09587
|884> H 8.82165 18.69116 13.73449
|885> C 8.31153 20.04059 16.09066
|886> C 8.45871 21.28170 17.16090
|887> H 7.69595 19.26790 16.59858
|888> H 7.73315 20.44140 15.23031
|889> O 7.21068 21.88428 17.67007
|890> H 9.05241 22.07997 16.66517
|891> H 9.03564 20.90192 18.03081
|892> C 7.42006 23.00092 18.61031
|893> C 6.09805 23.67712 19.25690
|894> H 7.96173 23.82047 18.09012
|895> H 8.03444 22.65143 19.46758
|896> O 6.36530 24.78286 20.17234
|897> H 5.53934 22.88497 19.80133
|898> H 5.46207 24.05821 18.42801
|899> C 5.17043 25.27264 20.84911
|900> C 5.41515 26.52430 21.79792
|901> H 4.75007 24.46951 21.49225
|902> H 4.40517 25.58626 20.10461
|903> O 4.22841 26.94010 22.50761
|904> H 5.79263 27.36452 21.17189
|905> H 6.18974 26.25008 22.54673
|906> C 4.43385 28.19528 23.18344
|907> C 3.30189 28.55106 24.19617
|908> H 4.46637 29.02042 22.43755
|909> H 5.38088 28.18588 23.76924
|910> O 3.56444 29.82454 24.77423
|911> H 3.26600 27.76948 24.98919
|912> H 2.32803 28.58891 23.65836
|913> C 2.64323 30.11769 25.81360
|914> H 1.58557 29.92251 25.52648
|915> H 2.69384 31.20642 26.04364
|916> H 2.90982 29.58147 26.75066
|917> C 13.02823 12.71423 10.04176
|918> H 12.56685 13.14147 9.12596
|919> H 12.33883 11.93649 10.43477
|920> H 15.11446 12.70857 9.17256
|921> H 14.88093 11.49322 10.47458
|922> C 24.41106 0.35249 0.03893
|923> H 23.46724 0.35163 2.15523
|924> C 25.78270 -0.66733 0.11613
|925> H 24.62527 1.21198 -0.62783
|926> H 23.84425 -0.31024 -0.63995
|927> C 26.27370 -1.50748 -1.26282
|928> H 25.54783 -1.45239 0.86722
|929> O 27.35403 -2.47675 -1.48023
|930> C 27.53163 -3.37537 -2.66747
|931> O 25.57409 -1.27641 -2.23701
|932> C 28.85724 -4.40006 -3.04683
|933> H 27.42482 -2.73014 -3.56079
|934> H 26.65906 -4.05542 -2.64164
|935> O 28.76648 -5.31020 -4.27616
|936> H 29.04255 -5.03796 -2.15494
|937> H 29.74809 -3.73997 -3.15715
|938> C 29.93232 -6.19106 -4.73326
|939> C 29.73785 -7.29488 -6.06060
|940> H 30.27266 -6.78486 -3.85642
|941> H 30.77331 -5.51165 -4.99750
|942> O 30.82264 -8.22423 -6.63887
|943> H 29.39144 -6.65283 -6.89468
|944> H 28.89470 -7.94236 -5.74979
|945> C 30.46543 -9.15865 -7.81303
|946> C 31.56192 -10.27508 -8.60410
|947> H 30.08430 -8.50431 -8.62289
|948> H 29.62176 -9.78420 -7.46011
|949> O 31.14581 -11.20566 -9.77194
|950> H 31.96166 -10.92139 -7.79367
|951> H 32.41088 -9.65314 -8.96216
|952> C 32.13998 -12.18205 -10.45158
|953> C 31.70850 -13.27246 -11.76923
|954> H 32.55636 -12.82676 -9.64850
|955> H 32.98353 -11.56694 -10.83229
|956> O 32.65839 -14.27231 -12.48528
|957> H 31.29935 -12.60868 -12.55770
|958> H 30.86588 -13.87193 -11.36970
|959> C 32.15058 -15.18242 -13.63815
|960> C 33.11097 -16.36315 -14.53244
|961> H 31.74173 -14.50478 -14.41521
|962> H 31.30029 -15.76345 -13.22702
|963> O 32.56546 -17.25605 -15.67774
|964> H 33.52935 -17.04955 -13.76639
|965> H 33.96719 -15.79459 -14.95326
|966> C 33.46348 -18.27742 -16.42263
|967> C 32.91625 -19.31899 -17.72243
|968> H 33.87964 -18.96655 -15.65792
|969> H 34.31933 -17.71215 -16.84829
|970> O 33.80698 -20.33533 -18.46139
|971> H 32.50713 -18.64068 -18.49926
|972> H 32.06461 -19.89583 -17.30691
|973> C 33.21663 -21.19875 -19.59017
|974> C 34.11222 -22.37233 -20.48779
|975> H 32.81173 -20.50970 -20.35986
|976> H 32.36338 -21.76598 -19.16453
|977> O 33.46454 -23.19276 -21.59258
|978> H 34.52653 -23.09551 -19.75356
|979> H 34.97336 -21.84170 -20.94689
|980> C 34.30855 -24.21041 -22.34020
|981> C 33.65088 -25.15215 -23.57753
|982> H 34.71362 -24.94037 -21.60751
|983> H 35.16847 -23.68342 -22.80575
|984> O 34.51566 -26.14446 -24.28703
|985> H 33.25217 -24.45928 -24.34854
|986> H 32.79521 -25.71571 -23.14910
|987> C 33.84747 -26.92903 -25.36668
|988> C 34.71603 -28.04492 -26.19533
|989> H 33.46113 -26.23265 -26.14113
|990> H 32.99252 -27.49240 -24.93598
|991> O 33.98128 -28.76935 -27.23747
|992> H 35.11091 -28.79341 -25.47364
|993> H 35.57862 -27.53532 -26.67841
|994> C 34.80409 -29.75177 -27.93843
|995> C 34.08241 -30.58339 -29.08122
|996> H 35.19025 -30.51058 -27.22253
|997> H 35.66200 -29.24934 -28.43759
|998> O 35.00012 -31.50612 -29.67602
|999> H 33.70463 -29.89277 -29.86861
|1000> H 33.22894 -31.15312 -28.64952
|1001> C 34.39411 -32.27374 -30.71470
|1002> H 33.55187 -32.90242 -30.34874
|1003> H 35.14206 -32.99570 -31.12317
|1004> H 34.08528 -31.64890 -31.58230
|1005> H 23.08108 -7.71497 -8.39054
|1006> H 29.71913 2.64260 3.43028
|1007> C 28.24223 0.84302 1.19389
|1008> H 28.83769 1.67490 -3.61686
|1009> C 26.94768 0.17269 0.67907
|1010> H 27.07931 -0.92044 0.53607
|1011> H 26.69259 0.62039 -0.31202
|1012> C 27.65635 2.37193 1.56095
|1013> O 28.07352 3.29214 0.86621
|1014> O 26.63061 2.68458 2.55119
|1015> C 25.55600 3.71834 2.66832
|1016> C 25.23305 4.68044 4.03397
|1017> H 24.61555 3.13462 2.56549
|1018> H 25.59511 4.37760 1.77768
|1019> O 23.94210 5.47783 4.12552
|1020> H 26.08789 5.37961 4.13768
|1021> H 25.24312 3.99229 4.90471
|1022> C 23.78781 6.48458 5.24917
|1023> C 22.29923 7.23750 5.60153
|1024> H 24.48914 7.31482 5.02936
|1025> H 24.11346 5.99964 6.19236
|1026> O 22.21639 8.29387 6.68525
|1027> H 21.58470 6.42524 5.85872
|1028> H 21.94574 7.69978 4.65505
|1029> C 20.87459 8.92614 6.99623
|1030> C 20.76232 10.16156 8.15816
|1031> H 20.18774 8.11925 7.33170
|1032> H 20.46128 9.34347 6.05284
|1033> O 19.44317 10.81280 8.51180
|1034> H 21.44539 10.96423 7.81173
|1035> H 21.17946 9.73434 9.09337
|1036> C 19.47473 11.91423 9.54850
|1037> O 18.15059 13.81671 11.06712
|1038> C 16.86608 14.47672 11.49849
|1039> C 16.90644 15.73906 12.61012
|1040> H 16.20930 13.69796 11.94147
|1041> H 16.35846 14.87679 10.59491
|1042> O 15.63067 16.39212 13.05465
|1043> H 17.55221 16.52742 12.16923
|1044> H 17.41319 15.34517 13.51598
|1045> C 15.76907 17.51841 14.03520
|1046> C 14.40938 18.29030 14.61303
|1047> H 16.39059 18.31166 13.56852
|1048> H 16.30379 17.13878 14.93113
|1049> O 14.59590 19.40537 15.58308
|1050> H 13.77248 17.51861 15.09587
|1051> H 13.85941 18.69116 13.73449
|1052> C 13.34929 20.04059 16.09066
|1053> C 13.49647 21.28170 17.16090
|1054> H 12.73371 19.26790 16.59858
|1055> H 12.77091 20.44140 15.23031
|1056> O 12.24844 21.88428 17.67007
|1057> H 14.09017 22.07997 16.66517
|1058> H 14.07340 20.90192 18.03081
|1059> C 12.45782 23.00092 18.61031
|1060> C 11.13581 23.67712 19.25690
|1061> H 12.99949 23.82047 18.09012
|1062> H 13.07220 22.65143 19.46758
|1063> O 11.40306 24.78286 20.17234
|1064> H 10.57710 22.88497 19.80133
|1065> H 10.49983 24.05821 18.42801
|1066> C 10.20819 25.27264 20.84911
|1067> C 10.45291 26.52430 21.79792
|1068> H 9.78783 24.46951 21.49225
|1069> H 9.44293 25.58626 20.10461
|1070> O 9.26617 26.94010 22.50761
|1071> H 10.83039 27.36452 21.17189
|1072> H 11.22750 26.25008 22.54673
|1073> C 9.47161 28.19528 23.18344
|1074> C 8.33965 28.55106 24.19617
|1075> H 9.50413 29.02042 22.43755
|1076> H 10.41864 28.18588 23.76924
|1077> O 8.60220 29.82454 24.77423
|1078> H 8.30376 27.76948 24.98919
|1079> H 7.36579 28.58891 23.65836
|1080> C 7.68099 30.11769 25.81360
|1081> H 6.62333 29.92251 25.52648
|1082> H 7.73160 31.20642 26.04364
|1083> H 7.94758 29.58147 26.75066
|1084> C 18.06599 12.71423 10.04176
|1085> H 17.60461 13.14147 9.12596
|1086> H 17.37659 11.93649 10.43477
|1087> H 20.15222 12.70857 9.17256
|1088> H 19.91869 11.49322 10.47458
|1089> C 29.44882 0.35249 0.03893
|1090> H 28.50500 0.35163 2.15523
|1091> C 30.82046 -0.66733 0.11613
|1092> H 29.66303 1.21198 -0.62783
|1093> H 28.88201 -0.31024 -0.63995
|1094> C 31.31146 -1.50748 -1.26282
|1095> H 30.58559 -1.45239 0.86722
|1096> O 32.39179 -2.47675 -1.48023
|1097> C 32.56939 -3.37537 -2.66747
|1098> O 30.61185 -1.27641 -2.23701
|1099> C 33.89500 -4.40006 -3.04683
|1100> H 32.46258 -2.73014 -3.56079
|1101> H 31.69682 -4.05542 -2.64164
|1102> O 33.80424 -5.31020 -4.27616
|1103> H 34.08031 -5.03796 -2.15494
|1104> H 34.78585 -3.73997 -3.15715
|1105> C 34.97008 -6.19106 -4.73326
|1106> C 34.77561 -7.29488 -6.06060
|1107> H 35.31042 -6.78486 -3.85642
|1108> H 35.81107 -5.51165 -4.99750
|1109> O 35.86040 -8.22423 -6.63887
|1110> H 34.42920 -6.65283 -6.89468
|1111> H 33.93246 -7.94236 -5.74979
|1112> C 35.50319 -9.15865 -7.81303
|1113> C 36.59968 -10.27508 -8.60410
|1114> H 35.12206 -8.50431 -8.62289
|1115> H 34.65952 -9.78420 -7.46011
|1116> O 36.18357 -11.20566 -9.77194
|1117> H 36.99942 -10.92139 -7.79367
|1118> H 37.44864 -9.65314 -8.96216
|1119> C 37.17774 -12.18205 -10.45158
|1120> C 36.74626 -13.27246 -11.76923
|1121> H 37.59412 -12.82676 -9.64850
|1122> H 38.02129 -11.56694 -10.83229
|1123> O 37.69615 -14.27231 -12.48528
|1124> H 36.33711 -12.60868 -12.55770
|1125> H 35.90364 -13.87193 -11.36970
|1126> C 37.18834 -15.18242 -13.63815
|1127> C 38.14873 -16.36315 -14.53244
|1128> H 36.77949 -14.50478 -14.41521
|1129> H 36.33805 -15.76345 -13.22702
|1130> O 37.60322 -17.25605 -15.67774
|1131> H 38.56711 -17.04955 -13.76639
|1132> H 39.00495 -15.79459 -14.95326
|1133> C 38.50124 -18.27742 -16.42263
|1134> C 37.95401 -19.31899 -17.72243
|1135> H 38.91740 -18.96655 -15.65792
|1136> H 39.35709 -17.71215 -16.84829
|1137> O 38.84474 -20.33533 -18.46139
|1138> H 37.54489 -18.64068 -18.49926
|1139> H 37.10237 -19.89583 -17.30691
|1140> C 38.25439 -21.19875 -19.59017
|1141> C 39.14998 -22.37233 -20.48779
|1142> H 37.84949 -20.50970 -20.35986
|1143> H 37.40114 -21.76598 -19.16453
|1144> O 38.50230 -23.19276 -21.59258
|1145> H 39.56429 -23.09551 -19.75356
|1146> H 40.01112 -21.84170 -20.94689
|1147> C 39.34631 -24.21041 -22.34020
|1148> C 38.68864 -25.15215 -23.57753
|1149> H 39.75138 -24.94037 -21.60751
|1150> H 40.20623 -23.68342 -22.80575
|1151> O 39.55342 -26.14446 -24.28703
|1152> H 38.28993 -24.45928 -24.34854
|1153> H 37.83297 -25.71571 -23.14910
|1154> C 38.88523 -26.92903 -25.36668
|1155> C 39.75379 -28.04492 -26.19533
|1156> H 38.49889 -26.23265 -26.14113
|1157> H 38.03028 -27.49240 -24.93598
|1158> O 39.01904 -28.76935 -27.23747
|1159> H 40.14867 -28.79341 -25.47364
|1160> H 40.61638 -27.53532 -26.67841
|1161> C 39.84185 -29.75177 -27.93843
|1162> C 39.12017 -30.58339 -29.08122
|1163> H 40.22801 -30.51058 -27.22253
|1164> H 40.69976 -29.24934 -28.43759
|1165> O 40.03788 -31.50612 -29.67602
|1166> H 38.74239 -29.89277 -29.86861
|1167> H 38.26670 -31.15312 -28.64952
|1168> C 39.43187 -32.27374 -30.71470
|1169> H 38.58963 -32.90242 -30.34874
|1170> H 40.17982 -32.99570 -31.12317
|1171> H 39.12304 -31.64890 -31.58230
|1172> H 28.11884 -7.71497 -8.39054
|1173> H 34.75689 2.64260 3.43028
|1174> C 33.27999 0.84302 1.19389
|1175> H 33.87545 1.67490 -3.61686
|1176> C 31.98544 0.17269 0.67907
|1177> H 32.11707 -0.92044 0.53607
|1178> H 31.73035 0.62039 -0.31202
|1179> C 32.69411 2.37193 1.56095
|1180> O 33.11128 3.29214 0.86621
|1181> O 31.66837 2.68458 2.55119
|1182> C 30.59376 3.71834 2.66832
|1183> C 30.27081 4.68044 4.03397
|1184> H 29.65331 3.13462 2.56549
|1185> H 30.63287 4.37760 1.77768
|1186> O 28.97986 5.47783 4.12552
|1187> H 31.12565 5.37961 4.13768
|1188> H 30.28088 3.99229 4.90471
|1189> C 28.82557 6.48458 5.24917
|1190> C 27.33699 7.23750 5.60153
|1191> H 29.52690 7.31482 5.02936
|1192> H 29.15122 5.99964 6.19236
|1193> O 27.25415 8.29387 6.68525
|1194> H 26.62246 6.42524 5.85872
|1195> H 26.98350 7.69978 4.65505
|1196> C 25.91235 8.92614 6.99623
|1197> C 25.80008 10.16156 8.15816
|1198> H 25.22550 8.11925 7.33170
|1199> H 25.49904 9.34347 6.05284
|1200> O 24.48093 10.81280 8.51180
|1201> H 26.48315 10.96423 7.81173
|1202> H 26.21722 9.73434 9.09337
|1203> C 24.51249 11.91423 9.54850
|1204> O 23.18835 13.81671 11.06712
|1205> C 21.90384 14.47672 11.49849
|1206> C 21.94420 15.73906 12.61012
|1207> H 21.24706 13.69796 11.94147
|1208> H 21.39622 14.87679 10.59491
|1209> O 20.66843 16.39212 13.05465
|1210> H 22.58997 16.52742 12.16923
|1211> H 22.45095 15.34517 13.51598
|1212> C 20.80683 17.51841 14.03520
|1213> C 19.44714 18.29030 14.61303
|1214> H 21.42835 18.31166 13.56852
|1215> H 21.34155 17.13878 14.93113
|1216> O 19.63366 19.40537 15.58308
|1217> H 18.81024 17.51861 15.09587
|1218> H 18.89717 18.69116 13.73449
|1219> C 18.38705 20.04059 16.09066
|1220> C 18.53423 21.28170 17.16090
|1221> H 17.77147 19.26790 16.59858
|1222> H 17.80867 20.44140 15.23031
|1223> O 17.28620 21.88428 17.67007
|1224> H 19.12793 22.07997 16.66517
|1225> H 19.11116 20.90192 18.03081
|1226> C 17.49558 23.00092 18.61031
|1227> C 16.17357 23.67712 19.25690
|1228> H 18.03725 23.82047 18.09012
|1229> H 18.10996 22.65143 19.46758
|1230> O 16.44082 24.78286 20.17234
|1231> H 15.61486 22.88497 19.80133
|1232> H 15.53759 24.05821 18.42801
|1233> C 15.24595 25.27264 20.84911
|1234> C 15.49067 26.52430 21.79792
|1235> H 14.82559 24.46951 21.49225
|1236> H 14.48069 25.58626 20.10461
|1237> O 14.30393 26.94010 22.50761
|1238> H 15.86815 27.36452 21.17189
|1239> H 16.26526 26.25008 22.54673
|1240> C 14.50937 28.19528 23.18344
|1241> C 13.37741 28.55106 24.19617
|1242> H 14.54189 29.02042 22.43755
|1243> H 15.45640 28.18588 23.76924
|1244> O 13.63996 29.82454 24.77423
|1245> H 13.34152 27.76948 24.98919
|1246> H 12.40355 28.58891 23.65836
|1247> C 12.71875 30.11769 25.81360
|1248> H 11.66109 29.92251 25.52648
|1249> H 12.76936 31.20642 26.04364
|1250> H 12.98534 29.58147 26.75066
|1251> C 23.10375 12.71423 10.04176
|1252> H 22.64237 13.14147 9.12596
|1253> H 22.41435 11.93649 10.43477
|1254> H 25.18998 12.70857 9.17256
|1255> H 24.95645 11.49322 10.47458
|1256> C 34.48658 0.35249 0.03893
|1257> H 33.54276 0.35163 2.15523
|1258> C 35.85822 -0.66733 0.11613
|1259> H 34.70079 1.21198 -0.62783
|1260> H 33.91977 -0.31024 -0.63995
|1261> C 36.34922 -1.50748 -1.26282
|1262> H 35.62335 -1.45239 0.86722
|1263> O 37.42955 -2.47675 -1.48023
|1264> C 37.60715 -3.37537 -2.66747
|1265> O 35.64961 -1.27641 -2.23701
|1266> C 38.93276 -4.40006 -3.04683
|1267> H 37.50034 -2.73014 -3.56079
|1268> H 36.73458 -4.05542 -2.64164
|1269> O 38.84200 -5.31020 -4.27616
|1270> H 39.11807 -5.03796 -2.15494
|1271> H 39.82361 -3.73997 -3.15715
|1272> C 40.00784 -6.19106 -4.73326
|1273> C 39.81337 -7.29488 -6.06060
|1274> H 40.34818 -6.78486 -3.85642
|1275> H 40.84883 -5.51165 -4.99750
|1276> O 40.89816 -8.22423 -6.63887
|1277> H 39.46696 -6.65283 -6.89468
|1278> H 38.97022 -7.94236 -5.74979
|1279> C 40.54095 -9.15865 -7.81303
|1280> C 41.63744 -10.27508 -8.60410
|1281> H 40.15982 -8.50431 -8.62289
|1282> H 39.69728 -9.78420 -7.46011
|1283> O 41.22133 -11.20566 -9.77194
|1284> H 42.03718 -10.92139 -7.79367
|1285> H 42.48640 -9.65314 -8.96216
|1286> C 42.21550 -12.18205 -10.45158
|1287> C 41.78402 -13.27246 -11.76923
|1288> H 42.63188 -12.82676 -9.64850
|1289> H 43.05905 -11.56694 -10.83229
|1290> O 42.73391 -14.27231 -12.48528
|1291> H 41.37487 -12.60868 -12.55770
|1292> H 40.94140 -13.87193 -11.36970
|1293> C 42.22610 -15.18242 -13.63815
|1294> C 43.18649 -16.36315 -14.53244
|1295> H 41.81725 -14.50478 -14.41521
|1296> H 41.37581 -15.76345 -13.22702
|1297> O 42.64098 -17.25605 -15.67774
|1298> H 43.60487 -17.04955 -13.76639
|1299> H 44.04271 -15.79459 -14.95326
|1300> C 43.53900 -18.27742 -16.42263
|1301> C 42.99177 -19.31899 -17.72243
|1302> H 43.95516 -18.96655 -15.65792
|1303> H 44.39485 -17.71215 -16.84829
|1304> O 43.88250 -20.33533 -18.46139
|1305> H 42.58265 -18.64068 -18.49926
|1306> H 42.14013 -19.89583 -17.30691
|1307> C 43.29215 -21.19875 -19.59017
|1308> C 44.18774 -22.37233 -20.48779
|1309> H 42.88725 -20.50970 -20.35986
|1310> H 42.43890 -21.76598 -19.16453
|1311> O 43.54006 -23.19276 -21.59258
|1312> H 44.60205 -23.09551 -19.75356
|1313> H 45.04888 -21.84170 -20.94689
|1314> C 44.38407 -24.21041 -22.34020
|1315> C 43.72640 -25.15215 -23.57753
|1316> H 44.78914 -24.94037 -21.60751
|1317> H 45.24399 -23.68342 -22.80575
|1318> O 44.59118 -26.14446 -24.28703
|1319> H 43.32769 -24.45928 -24.34854
|1320> H 42.87073 -25.71571 -23.14910
|1321> C 43.92299 -26.92903 -25.36668
|1322> C 44.79155 -28.04492 -26.19533
|1323> H 43.53665 -26.23265 -26.14113
|1324> H 43.06804 -27.49240 -24.93598
|1325> O 44.05680 -28.76935 -27.23747
|1326> H 45.18643 -28.79341 -25.47364
|1327> H 45.65414 -27.53532 -26.67841
|1328> C 44.87961 -29.75177 -27.93843
|1329> C 44.15793 -30.58339 -29.08122
|1330> H 45.26577 -30.51058 -27.22253
|1331> H 45.73752 -29.24934 -28.43759
|1332> O 45.07564 -31.50612 -29.67602
|1333> H 43.78015 -29.89277 -29.86861
|1334> H 43.30446 -31.15312 -28.64952
|1335> C 44.46963 -32.27374 -30.71470
|1336> H 43.62739 -32.90242 -30.34874
|1337> H 45.21758 -32.99570 -31.12317
|1338> H 44.16080 -31.64890 -31.58230
|1339> H 33.15660 -7.71497 -8.39054
|1340> H 39.79465 2.64260 3.43028
|1341> C 38.31775 0.84302 1.19389
|1342> H 38.91321 1.67490 -3.61686
|1343> C 37.02320 0.17269 0.67907
|1344> H 37.15483 -0.92044 0.53607
|1345> H 36.76811 0.62039 -0.31202
|1346> C 37.73187 2.37193 1.56095
|1347> O 38.14904 3.29214 0.86621
|1348> O 36.70613 2.68458 2.55119
|1349> C 35.63152 3.71834 2.66832
|1350> C 35.30857 4.68044 4.03397
|1351> H 34.69107 3.13462 2.56549
|1352> H 35.67063 4.37760 1.77768
|1353> O 34.01762 5.47783 4.12552
|1354> H 36.16341 5.37961 4.13768
|1355> H 35.31864 3.99229 4.90471
|1356> C 33.86333 6.48458 5.24917
|1357> C 32.37475 7.23750 5.60153
|1358> H 34.56466 7.31482 5.02936
|1359> H 34.18898 5.99964 6.19236
|1360> O 32.29191 8.29387 6.68525
|1361> H 31.66022 6.42524 5.85872
|1362> H 32.02126 7.69978 4.65505
|1363> C 30.95011 8.92614 6.99623
|1364> C 30.83784 10.16156 8.15816
|1365> H 30.26326 8.11925 7.33170
|1366> H 30.53680 9.34347 6.05284
|1367> O 29.51869 10.81280 8.51180
|1368> H 31.52091 10.96423 7.81173
|1369> H 31.25498 9.73434 9.09337
|1370> C 29.55025 11.91423 9.54850
|1371> O 28.22611 13.81671 11.06712
|1372> C 26.94160 14.47672 11.49849
|1373> C 26.98196 15.73906 12.61012
|1374> H 26.28482 13.69796 11.94147
|1375> H 26.43398 14.87679 10.59491
|1376> O 25.70619 16.39212 13.05465
|1377> H 27.62773 16.52742 12.16923
|1378> H 27.48871 15.34517 13.51598
|1379> C 25.84459 17.51841 14.03520
|1380> C 24.48490 18.29030 14.61303
|1381> H 26.46611 18.31166 13.56852
|1382> H 26.37931 17.13878 14.93113
|1383> O 24.67142 19.40537 15.58308
|1384> H 23.84800 17.51861 15.09587
|1385> H 23.93493 18.69116 13.73449
|1386> C 23.42481 20.04059 16.09066
|1387> C 23.57199 21.28170 17.16090
|1388> H 22.80923 19.26790 16.59858
|1389> H 22.84643 20.44140 15.23031
|1390> O 22.32396 21.88428 17.67007
|1391> H 24.16569 22.07997 16.66517
|1392> H 24.14892 20.90192 18.03081
|1393> C 22.53334 23.00092 18.61031
|1394> C 21.21133 23.67712 19.25690
|1395> H 23.07501 23.82047 18.09012
|1396> H 23.14772 22.65143 19.46758
|1397> O 21.47858 24.78286 20.17234
|1398> H 20.65262 22.88497 19.80133
|1399> H 20.57535 24.05821 18.42801
|1400> C 20.28371 25.27264 20.84911
|1401> C 20.52843 26.52430 21.79792
|1402> H 19.86335 24.46951 21.49225
|1403> H 19.51845 25.58626 20.10461
|1404> O 19.34169 26.94010 22.50761
|1405> H 20.90591 27.36452 21.17189
|1406> H 21.30302 26.25008 22.54673
|1407> C 19.54713 28.19528 23.18344
|1408> C 18.41517 28.55106 24.19617
|1409> H 19.57965 29.02042 22.43755
|1410> H 20.49416 28.18588 23.76924
|1411> O 18.67772 29.82454 24.77423
|1412> H 18.37928 27.76948 24.98919
|1413> H 17.44131 28.58891 23.65836
|1414> C 17.75651 30.11769 25.81360
|1415> H 16.69885 29.92251 25.52648
|1416> H 17.80712 31.20642 26.04364
|1417> H 18.02310 29.58147 26.75066
|1418> C 28.14151 12.71423 10.04176
|1419> H 27.68013 13.14147 9.12596
|1420> H 27.45211 11.93649 10.43477
|1421> H 30.22774 12.70857 9.17256
|1422> H 29.99421 11.49322 10.47458
|1423> C 39.52434 0.35249 0.03893
|1424> H 38.58052 0.35163 2.15523
|1425> C 40.89598 -0.66733 0.11613
|1426> H 39.73855 1.21198 -0.62783
|1427> H 38.95753 -0.31024 -0.63995
|1428> C 41.38698 -1.50748 -1.26282
|1429> H 40.66111 -1.45239 0.86722
|1430> O 42.46731 -2.47675 -1.48023
|1431> C 42.64491 -3.37537 -2.66747
|1432> O 40.68737 -1.27641 -2.23701
|1433> C 43.97052 -4.40006 -3.04683
|1434> H 42.53810 -2.73014 -3.56079
|1435> H 41.77234 -4.05542 -2.64164
|1436> O 43.87976 -5.31020 -4.27616
|1437> H 44.15583 -5.03796 -2.15494
|1438> H 44.86137 -3.73997 -3.15715
|1439> C 45.04560 -6.19106 -4.73326
|1440> C 44.85113 -7.29488 -6.06060
|1441> H 45.38594 -6.78486 -3.85642
|1442> H 45.88659 -5.51165 -4.99750
|1443> O 45.93592 -8.22423 -6.63887
|1444> H 44.50472 -6.65283 -6.89468
|1445> H 44.00798 -7.94236 -5.74979
|1446> C 45.57871 -9.15865 -7.81303
|1447> C 46.67520 -10.27508 -8.60410
|1448> H 45.19758 -8.50431 -8.62289
|1449> H 44.73504 -9.78420 -7.46011
|1450> O 46.25909 -11.20566 -9.77194
|1451> H 47.07494 -10.92139 -7.79367
|1452> H 47.52416 -9.65314 -8.96216
|1453> C 47.25326 -12.18205 -10.45158
|1454> C 46.82178 -13.27246 -11.76923
|1455> H 47.66964 -12.82676 -9.64850
|1456> H 48.09681 -11.56694 -10.83229
|1457> O 47.77167 -14.27231 -12.48528
|1458> H 46.41263 -12.60868 -12.55770
|1459> H 45.97916 -13.87193 -11.36970
|1460> C 47.26386 -15.18242 -13.63815
|1461> C 48.22425 -16.36315 -14.53244
|1462> H 46.85501 -14.50478 -14.41521
|1463> H 46.41357 -15.76345 -13.22702
|1464> O 47.67874 -17.25605 -15.67774
|1465> H 48.64263 -17.04955 -13.76639
|1466> H 49.08047 -15.79459 -14.95326
|1467> C 48.57676 -18.27742 -16.42263
|1468> C 48.02953 -19.31899 -17.72243
|1469> H 48.99292 -18.96655 -15.65792
|1470> H 49.43261 -17.71215 -16.84829
|1471> O 48.92026 -20.33533 -18.46139
|1472> H 47.62041 -18.64068 -18.49926
|1473> H 47.17789 -19.89583 -17.30691
|1474> C 48.32991 -21.19875 -19.59017
|1475> C 49.22550 -22.37233 -20.48779
|1476> H 47.92501 -20.50970 -20.35986
|1477> H 47.47666 -21.76598 -19.16453
|1478> O 48.57782 -23.19276 -21.59258
|1479> H 49.63981 -23.09551 -19.75356
|1480> H 50.08664 -21.84170 -20.94689
|1481> C 49.42183 -24.21041 -22.34020
|1482> C 48.76416 -25.15215 -23.57753
|1483> H 49.82690 -24.94037 -21.60751
|1484> H 50.28175 -23.68342 -22.80575
|1485> O 49.62894 -26.14446 -24.28703
|1486> H 48.36545 -24.45928 -24.34854
|1487> H 47.90849 -25.71571 -23.14910
|1488> C 48.96075 -26.92903 -25.36668
|1489> C 49.82931 -28.04492 -26.19533
|1490> H 48.57441 -26.23265 -26.14113
|1491> H 48.10580 -27.49240 -24.93598
|1492> O 49.09456 -28.76935 -27.23747
|1493> H 50.22419 -28.79341 -25.47364
|1494> H 50.69190 -27.53532 -26.67841
|1495> C 49.91737 -29.75177 -27.93843
|1496> C 49.19569 -30.58339 -29.08122
|1497> H 50.30353 -30.51058 -27.22253
|1498> H 50.77528 -29.24934 -28.43759
|1499> O 50.11340 -31.50612 -29.67602
|1500> H 48.81791 -29.89277 -29.86861
|1501> H 48.34222 -31.15312 -28.64952
|1502> C 49.50739 -32.27374 -30.71470
|1503> H 48.66515 -32.90242 -30.34874
|1504> H 50.25534 -32.99570 -31.12317
|1505> H 49.19856 -31.64890 -31.58230
|1506> H 38.19436 -7.71497 -8.39054
|1507> H 44.83241 2.64260 3.43028
|1508> C 43.35551 0.84302 1.19389
|1509> H 43.95097 1.67490 -3.61686
|1510> C 42.06096 0.17269 0.67907
|1511> H 42.19259 -0.92044 0.53607
|1512> H 41.80587 0.62039 -0.31202
|1513> C 42.76963 2.37193 1.56095
|1514> O 43.18680 3.29214 0.86621
|1515> O 41.74389 2.68458 2.55119
|1516> C 40.66928 3.71834 2.66832
|1517> C 40.34633 4.68044 4.03397
|1518> H 39.72883 3.13462 2.56549
|1519> H 40.70839 4.37760 1.77768
|1520> O 39.05538 5.47783 4.12552
|1521> H 41.20117 5.37961 4.13768
|1522> H 40.35640 3.99229 4.90471
|1523> C 38.90109 6.48458 5.24917
|1524> C 37.41251 7.23750 5.60153
|1525> H 39.60242 7.31482 5.02936
|1526> H 39.22674 5.99964 6.19236
|1527> O 37.32967 8.29387 6.68525
|1528> H 36.69798 6.42524 5.85872
|1529> H 37.05902 7.69978 4.65505
|1530> C 35.98787 8.92614 6.99623
|1531> C 35.87560 10.16156 8.15816
|1532> H 35.30102 8.11925 7.33170
|1533> H 35.57456 9.34347 6.05284
|1534> O 34.55645 10.81280 8.51180
|1535> H 36.55867 10.96423 7.81173
|1536> H 36.29274 9.73434 9.09337
|1537> C 34.58801 11.91423 9.54850
|1538> O 33.26387 13.81671 11.06712
|1539> C 31.97936 14.47672 11.49849
|1540> C 32.01972 15.73906 12.61012
|1541> H 31.32258 13.69796 11.94147
|1542> H 31.47174 14.87679 10.59491
|1543> O 30.74395 16.39212 13.05465
|1544> H 32.66549 16.52742 12.16923
|1545> H 32.52647 15.34517 13.51598
|1546> C 30.88235 17.51841 14.03520
|1547> C 29.52266 18.29030 14.61303
|1548> H 31.50387 18.31166 13.56852
|1549> H 31.41707 17.13878 14.93113
|1550> O 29.70918 19.40537 15.58308
|1551> H 28.88576 17.51861 15.09587
|1552> H 28.97269 18.69116 13.73449
|1553> C 28.46257 20.04059 16.09066
|1554> C 28.60975 21.28170 17.16090
|1555> H 27.84699 19.26790 16.59858
|1556> H 27.88419 20.44140 15.23031
|1557> O 27.36172 21.88428 17.67007
|1558> H 29.20345 22.07997 16.66517
|1559> H 29.18668 20.90192 18.03081
|1560> C 27.57110 23.00092 18.61031
|1561> C 26.24909 23.67712 19.25690
|1562> H 28.11277 23.82047 18.09012
|1563> H 28.18548 22.65143 19.46758
|1564> O 26.51634 24.78286 20.17234
|1565> H 25.69038 22.88497 19.80133
|1566> H 25.61311 24.05821 18.42801
|1567> C 25.32147 25.27264 20.84911
|1568> C 25.56619 26.52430 21.79792
|1569> H 24.90111 24.46951 21.49225
|1570> H 24.55621 25.58626 20.10461
|1571> O 24.37945 26.94010 22.50761
|1572> H 25.94367 27.36452 21.17189
|1573> H 26.34078 26.25008 22.54673
|1574> C 24.58489 28.19528 23.18344
|1575> C 23.45293 28.55106 24.19617
|1576> H 24.61741 29.02042 22.43755
|1577> H 25.53192 28.18588 23.76924
|1578> O 23.71548 29.82454 24.77423
|1579> H 23.41704 27.76948 24.98919
|1580> H 22.47907 28.58891 23.65836
|1581> C 22.79427 30.11769 25.81360
|1582> H 21.73661 29.92251 25.52648
|1583> H 22.84488 31.20642 26.04364
|1584> H 23.06086 29.58147 26.75066
|1585> C 33.17927 12.71423 10.04176
|1586> H 32.71789 13.14147 9.12596
|1587> H 32.48987 11.93649 10.43477
|1588> H 35.26550 12.70857 9.17256
|1589> H 35.03197 11.49322 10.47458
|1590> C 44.56210 0.35249 0.03893
|1591> H 43.61828 0.35163 2.15523
|1592> C 45.93374 -0.66733 0.11613
|1593> H 44.77631 1.21198 -0.62783
|1594> H 43.99529 -0.31024 -0.63995
|1595> C 46.42474 -1.50748 -1.26282
|1596> H 45.69887 -1.45239 0.86722
|1597> O 47.50507 -2.47675 -1.48023
|1598> C 47.68267 -3.37537 -2.66747
|1599> O 45.72513 -1.27641 -2.23701
|1600> C 49.00828 -4.40006 -3.04683
|1601> H 47.57586 -2.73014 -3.56079
|1602> H 46.81010 -4.05542 -2.64164
|1603> O 48.91752 -5.31020 -4.27616
|1604> H 49.19359 -5.03796 -2.15494
|1605> H 49.89913 -3.73997 -3.15715
|1606> C 50.08336 -6.19106 -4.73326
|1607> C 49.88889 -7.29488 -6.06060
|1608> H 50.42370 -6.78486 -3.85642
|1609> H 50.92435 -5.51165 -4.99750
|1610> O 50.97368 -8.22423 -6.63887
|1611> H 49.54248 -6.65283 -6.89468
|1612> H 49.04574 -7.94236 -5.74979
|1613> C 50.61647 -9.15865 -7.81303
|1614> C 51.71296 -10.27508 -8.60410
|1615> H 50.23534 -8.50431 -8.62289
|1616> H 49.77280 -9.78420 -7.46011
|1617> O 51.29685 -11.20566 -9.77194
|1618> H 52.11270 -10.92139 -7.79367
|1619> H 52.56192 -9.65314 -8.96216
|1620> C 52.29102 -12.18205 -10.45158
|1621> C 51.85954 -13.27246 -11.76923
|1622> H 52.70740 -12.82676 -9.64850
|1623> H 53.13457 -11.56694 -10.83229
|1624> O 52.80943 -14.27231 -12.48528
|1625> H 51.45039 -12.60868 -12.55770
|1626> H 51.01692 -13.87193 -11.36970
|1627> C 52.30162 -15.18242 -13.63815
|1628> C 53.26201 -16.36315 -14.53244
|1629> H 51.89277 -14.50478 -14.41521
|1630> H 51.45133 -15.76345 -13.22702
|1631> O 52.71650 -17.25605 -15.67774
|1632> H 53.68039 -17.04955 -13.76639
|1633> H 54.11823 -15.79459 -14.95326
|1634> C 53.61452 -18.27742 -16.42263
|1635> C 53.06729 -19.31899 -17.72243
|1636> H 54.03068 -18.96655 -15.65792
|1637> H 54.47037 -17.71215 -16.84829
|1638> O 53.95802 -20.33533 -18.46139
|1639> H 52.65817 -18.64068 -18.49926
|1640> H 52.21565 -19.89583 -17.30691
|1641> C 53.36767 -21.19875 -19.59017
|1642> C 54.26326 -22.37233 -20.48779
|1643> H 52.96277 -20.50970 -20.35986
|1644> H 52.51442 -21.76598 -19.16453
|1645> O 53.61558 -23.19276 -21.59258
|1646> H 54.67757 -23.09551 -19.75356
|1647> H 55.12440 -21.84170 -20.94689
|1648> C 54.45959 -24.21041 -22.34020
|1649> C 53.80192 -25.15215 -23.57753
|1650> H 54.86466 -24.94037 -21.60751
|1651> H 55.31951 -23.68342 -22.80575
|1652> O 54.66670 -26.14446 -24.28703
|1653> H 53.40321 -24.45928 -24.34854
|1654> H 52.94625 -25.71571 -23.14910
|1655> C 53.99851 -26.92903 -25.36668
|1656> C 54.86707 -28.04492 -26.19533
|1657> H 53.61217 -26.23265 -26.14113
|1658> H 53.14356 -27.49240 -24.93598
|1659> O 54.13232 -28.76935 -27.23747
|1660> H 55.26195 -28.79341 -25.47364
|1661> H 55.72966 -27.53532 -26.67841
|1662> C 54.95513 -29.75177 -27.93843
|1663> C 54.23345 -30.58339 -29.08122
|1664> H 55.34129 -30.51058 -27.22253
|1665> H 55.81304 -29.24934 -28.43759
|1666> O 55.15116 -31.50612 -29.67602
|1667> H 53.85567 -29.89277 -29.86861
|1668> H 53.37998 -31.15312 -28.64952
|1669> C 54.54515 -32.27374 -30.71470
|1670> H 53.70291 -32.90242 -30.34874
|1671> H 55.29310 -32.99570 -31.12317
|1672> H 54.23632 -31.64890 -31.58230
|1673> H 43.23212 -7.71497 -8.39054
|1674> H 49.87017 2.64260 3.43028
|1675> C 48.39327 0.84302 1.19389
|1676> H 48.98873 1.67490 -3.61686
|1677> C 47.09872 0.17269 0.67907
|1678> H 47.23035 -0.92044 0.53607
|1679> H 46.84363 0.62039 -0.31202
|1680> C 47.80739 2.37193 1.56095
|1681> O 48.22456 3.29214 0.86621
|1682> O 46.78165 2.68458 2.55119
|1683> C 45.70704 3.71834 2.66832
|1684> C 45.38409 4.68044 4.03397
|1685> H 44.76659 3.13462 2.56549
|1686> H 45.74615 4.37760 1.77768
|1687> O 44.09314 5.47783 4.12552
|1688> H 46.23893 5.37961 4.13768
|1689> H 45.39416 3.99229 4.90471
|1690> C 43.93885 6.48458 5.24917
|1691> C 42.45027 7.23750 5.60153
|1692> H 44.64018 7.31482 5.02936
|1693> H 44.26450 5.99964 6.19236
|1694> O 42.36743 8.29387 6.68525
|1695> H 41.73574 6.42524 5.85872
|1696> H 42.09678 7.69978 4.65505
|1697> C 41.02563 8.92614 6.99623
|1698> C 40.91336 10.16156 8.15816
|1699> H 40.33878 8.11925 7.33170
|1700> H 40.61232 9.34347 6.05284
|1701> O 39.59421 10.81280 8.51180
|1702> H 41.59643 10.96423 7.81173
|1703> H 41.33050 9.73434 9.09337
|1704> C 39.62577 11.91423 9.54850
|1705> O 38.30163 13.81671 11.06712
|1706> C 37.01712 14.47672 11.49849
|1707> C 37.05748 15.73906 12.61012
|1708> H 36.36034 13.69796 11.94147
|1709> H 36.50950 14.87679 10.59491
|1710> O 35.78171 16.39212 13.05465
|1711> H 37.70325 16.52742 12.16923
|1712> H 37.56423 15.34517 13.51598
|1713> C 35.92011 17.51841 14.03520
|1714> C 34.56042 18.29030 14.61303
|1715> H 36.54163 18.31166 13.56852
|1716> H 36.45483 17.13878 14.93113
|1717> O 34.74694 19.40537 15.58308
|1718> H 33.92352 17.51861 15.09587
|1719> H 34.01045 18.69116 13.73449
|1720> C 33.50033 20.04059 16.09066
|1721> C 33.64751 21.28170 17.16090
|1722> H 32.88475 19.26790 16.59858
|1723> H 32.92195 20.44140 15.23031
|1724> O 32.39948 21.88428 17.67007
|1725> H 34.24121 22.07997 16.66517
|1726> H 34.22444 20.90192 18.03081
|1727> C 32.60886 23.00092 18.61031
|1728> C 31.28685 23.67712 19.25690
|1729> H 33.15053 23.82047 18.09012
|1730> H 33.22324 22.65143 19.46758
|1731> O 31.55410 24.78286 20.17234
|1732> H 30.72814 22.88497 19.80133
|1733> H 30.65087 24.05821 18.42801
|1734> C 30.35923 25.27264 20.84911
|1735> C 30.60395 26.52430 21.79792
|1736> H 29.93887 24.46951 21.49225
|1737> H 29.59397 25.58626 20.10461
|1738> O 29.41721 26.94010 22.50761
|1739> H 30.98143 27.36452 21.17189
|1740> H 31.37854 26.25008 22.54673
|1741> C 29.62265 28.19528 23.18344
|1742> C 28.49069 28.55106 24.19617
|1743> H 29.65517 29.02042 22.43755
|1744> H 30.56968 28.18588 23.76924
|1745> O 28.75324 29.82454 24.77423
|1746> H 28.45480 27.76948 24.98919
|1747> H 27.51683 28.58891 23.65836
|1748> C 27.83203 30.11769 25.81360
|1749> H 26.77437 29.92251 25.52648
|1750> H 27.88264 31.20642 26.04364
|1751> H 28.09862 29.58147 26.75066
|1752> C 38.21703 12.71423 10.04176
|1753> H 37.75565 13.14147 9.12596
|1754> H 37.52763 11.93649 10.43477
|1755> H 40.30326 12.70857 9.17256
|1756> H 40.06973 11.49322 10.47458
|1757> C 49.59986 0.35249 0.03893
|1758> H 48.65604 0.35163 2.15523
|1759> C 50.97150 -0.66733 0.11613
|1760> H 49.81407 1.21198 -0.62783
|1761> H 49.03305 -0.31024 -0.63995
|1762> C 51.46250 -1.50748 -1.26282
|1763> H 50.73663 -1.45239 0.86722
|1764> O 52.54283 -2.47675 -1.48023
|1765> C 52.72043 -3.37537 -2.66747
|1766> O 50.76289 -1.27641 -2.23701
|1767> C 54.04604 -4.40006 -3.04683
|1768> H 52.61362 -2.73014 -3.56079
|1769> H 51.84786 -4.05542 -2.64164
|1770> O 53.95528 -5.31020 -4.27616
|1771> H 54.23135 -5.03796 -2.15494
|1772> H 54.93689 -3.73997 -3.15715
|1773> C 55.12112 -6.19106 -4.73326
|1774> C 54.92665 -7.29488 -6.06060
|1775> H 55.46146 -6.78486 -3.85642
|1776> H 55.96211 -5.51165 -4.99750
|1777> O 56.01144 -8.22423 -6.63887
|1778> H 54.58024 -6.65283 -6.89468
|1779> H 54.08350 -7.94236 -5.74979
|1780> C 55.65423 -9.15865 -7.81303
|1781> C 56.75072 -10.27508 -8.60410
|1782> H 55.27310 -8.50431 -8.62289
|1783> H 54.81056 -9.78420 -7.46011
|1784> O 56.33461 -11.20566 -9.77194
|1785> H 57.15046 -10.92139 -7.79367
|1786> H 57.59968 -9.65314 -8.96216
|1787> C 57.32878 -12.18205 -10.45158
|1788> C 56.89730 -13.27246 -11.76923
|1789> H 57.74516 -12.82676 -9.64850
|1790> H 58.17233 -11.56694 -10.83229
|1791> O 57.84719 -14.27231 -12.48528
|1792> H 56.48815 -12.60868 -12.55770
|1793> H 56.05468 -13.87193 -11.36970
|1794> C 57.33938 -15.18242 -13.63815
|1795> C 58.29977 -16.36315 -14.53244
|1796> H 56.93053 -14.50478 -14.41521
|1797> H 56.48909 -15.76345 -13.22702
|1798> O 57.75426 -17.25605 -15.67774
|1799> H 58.71815 -17.04955 -13.76639
|1800> H 59.15599 -15.79459 -14.95326
|1801> C 58.65228 -18.27742 -16.42263
|1802> C 58.10505 -19.31899 -17.72243
|1803> H 59.06844 -18.96655 -15.65792
|1804> H 59.50813 -17.71215 -16.84829
|1805> O 58.99578 -20.33533 -18.46139
|1806> H 57.69593 -18.64068 -18.49926
|1807> H 57.25341 -19.89583 -17.30691
|1808> C 58.40543 -21.19875 -19.59017
|1809> C 59.30102 -22.37233 -20.48779
|1810> H 58.00053 -20.50970 -20.35986
|1811> H 57.55218 -21.76598 -19.16453
|1812> O 58.65334 -23.19276 -21.59258
|1813> H 59.71533 -23.09551 -19.75356
|1814> H 60.16216 -21.84170 -20.94689
|1815> C 59.49735 -24.21041 -22.34020
|1816> C 58.83968 -25.15215 -23.57753
|1817> H 59.90242 -24.94037 -21.60751
|1818> H 60.35727 -23.68342 -22.80575
|1819> O 59.70446 -26.14446 -24.28703
|1820> H 58.44097 -24.45928 -24.34854
|1821> H 57.98401 -25.71571 -23.14910
|1822> C 59.03627 -26.92903 -25.36668
|1823> C 59.90483 -28.04492 -26.19533
|1824> H 58.64993 -26.23265 -26.14113
|1825> H 58.18132 -27.49240 -24.93598
|1826> O 59.17008 -28.76935 -27.23747
|1827> H 60.29971 -28.79341 -25.47364
|1828> H 60.76742 -27.53532 -26.67841
|1829> C 59.99289 -29.75177 -27.93843
|1830> C 59.27121 -30.58339 -29.08122
|1831> H 60.37905 -30.51058 -27.22253
|1832> H 60.85080 -29.24934 -28.43759
|1833> O 60.18892 -31.50612 -29.67602
|1834> H 58.89343 -29.89277 -29.86861
|1835> H 58.41774 -31.15312 -28.64952
|1836> C 59.58291 -32.27374 -30.71470
|1837> H 58.74067 -32.90242 -30.34874
|1838> H 60.33086 -32.99570 -31.12317
|1839> H 59.27408 -31.64890 -31.58230
|1840> H 48.26988 -7.71497 -8.39054
|1841> C 52.13648 0.17269 0.67907
|1842> C 53.35353 1.07147 0.77033
|1843> H 52.17259 -0.60709 1.44680
|1844> H 52.10448 -0.33490 -0.29054
|1845> O 54.52465 0.26669 0.64507
|1846> H 53.36265 1.58519 1.73789
|1847> H 53.32721 1.81670 -0.03219
|1848> C 55.70909 1.06176 0.70588
|1849> C 56.93686 0.15997 0.64329
|1850> H 55.72622 1.64279 1.63569
|1851> H 55.72563 1.77015 -0.13095
|1852> O 58.11350 0.96546 0.71894
|1853> H 56.93235 -0.41355 -0.29119
|1854> H 56.91578 -0.55438 1.47502
|1855> C 59.29235 0.17269 0.67907
|1856> C 60.56191 0.60138 1.44412
|1857> H 58.95570 0.97252 0.00816
|1858> H 59.47676 -0.72016 0.07705
|1859> C 60.26963 1.86482 2.32082
|1860> C 59.01608 2.05645 2.96132
|1861> C 58.74407 3.17410 3.77853
|1862> C 59.73680 4.12181 4.00399
|1863> C 60.98639 3.96030 3.41290
|1864> C 61.25026 2.83727 2.60215
|1865> H 58.20676 1.33948 2.85751
|1866> H 57.77058 3.30537 4.24789
|1867> H 61.76027 4.70281 3.59458
|1868> H 62.26170 2.76139 2.21777
|1869> S 59.39539 5.57323 5.04629
|1870> O 58.00271 5.88713 4.73057
|1871> O 60.36647 6.56080 4.58268
|1872> O 59.62871 5.04859 6.38914
|1873> C 61.73499 0.69540 0.37329
|1874> H 60.80497 -0.19113 2.16480
|1875> C 62.79110 -0.48614 0.33166
|1876> H 62.28818 1.61017 0.59591
|1877> H 61.32645 0.88109 -0.62666
|1878> C 62.93102 -1.44035 -0.90706
|1879> H 62.59656 -1.16032 1.17540
|1880> C 61.89178 -2.31126 -1.31037
|1881> C 62.10678 -3.34159 -2.26556
|1882> C 64.18001 -1.64412 -1.56081
|1883> C 64.40309 -2.66671 -2.50243
|1884> C 63.36878 -3.52868 -2.83750
|1885> H 60.90585 -2.25490 -0.85897
|1886> H 61.30924 -4.02977 -2.54406
|1887> H 65.05033 -1.03933 -1.31278
|1888> H 65.39004 -2.81081 -2.93765
|1889> S 63.67222 -4.90691 -3.99532
|1890> O 64.99840 -4.62972 -4.53086
|1891> O 62.57530 -4.76327 -4.95427
|1892> O 63.58663 -6.07253 -3.11734
|1893> C 64.19518 0.17269 0.67907
|1894> C 65.46474 0.60138 1.44412
|1895> H 63.85853 0.97252 0.00816
|1896> H 64.37959 -0.72016 0.07705
|1897> C 65.17246 1.86482 2.32082
|1898> C 63.91891 2.05645 2.96132
|1899> C 63.64690 3.17410 3.77853
|1900> C 64.63963 4.12181 4.00399
|1901> C 65.88922 3.96030 3.41290
|1902> C 66.15309 2.83727 2.60215
|1903> H 63.10959 1.33948 2.85751
|1904> H 62.67341 3.30537 4.24789
|1905> H 66.66310 4.70281 3.59458
|1906> H 67.16453 2.76139 2.21777
|1907> S 64.29822 5.57323 5.04629
|1908> O 62.90554 5.88713 4.73057
|1909> O 65.26930 6.56080 4.58268
|1910> O 64.53154 5.04859 6.38914
|1911> C 66.63782 0.69540 0.37329
|1912> H 65.70780 -0.19113 2.16480
|1913> C 67.69393 -0.48614 0.33166
|1914> H 67.19101 1.61017 0.59591
|1915> H 66.22928 0.88109 -0.62666
|1916> C 67.83385 -1.44035 -0.90706
|1917> H 67.49939 -1.16032 1.17540
|1918> C 66.79461 -2.31126 -1.31037
|1919> C 67.00961 -3.34159 -2.26556
|1920> C 69.08284 -1.64412 -1.56081
|1921> C 69.30592 -2.66671 -2.50243
|1922> C 68.27161 -3.52868 -2.83750
|1923> H 65.80868 -2.25490 -0.85897
|1924> H 66.21207 -4.02977 -2.54406
|1925> H 69.95316 -1.03933 -1.31278
|1926> H 70.29287 -2.81081 -2.93765
|1927> S 68.57505 -4.90691 -3.99532
|1928> O 69.90123 -4.62972 -4.53086
|1929> O 67.47813 -4.76327 -4.95427
|1930> O 68.48946 -6.07253 -3.11734
|1931> C 69.09801 0.17269 0.67907
|1932> C 70.36757 0.60138 1.44412
|1933> H 68.76136 0.97252 0.00816
|1934> H 69.28242 -0.72016 0.07705
|1935> C 70.07529 1.86482 2.32082
|1936> C 68.82174 2.05645 2.96132
|1937> C 68.54973 3.17410 3.77853
|1938> C 69.54246 4.12181 4.00399
|1939> C 70.79205 3.96030 3.41290
|1940> C 71.05592 2.83727 2.60215
|1941> H 68.01242 1.33948 2.85751
|1942> H 67.57624 3.30537 4.24789
|1943> H 71.56593 4.70281 3.59458
|1944> H 72.06736 2.76139 2.21777
|1945> S 69.20105 5.57323 5.04629
|1946> O 67.80837 5.88713 4.73057
|1947> O 70.17213 6.56080 4.58268
|1948> O 69.43437 5.04859 6.38914
|1949> C 71.54065 0.69540 0.37329
|1950> H 70.61063 -0.19113 2.16480
|1951> C 72.59676 -0.48614 0.33166
|1952> H 72.09384 1.61017 0.59591
|1953> H 71.13211 0.88109 -0.62666
|1954> C 72.73668 -1.44035 -0.90706
|1955> H 72.40222 -1.16032 1.17540
|1956> C 71.69744 -2.31126 -1.31037
|1957> C 71.91244 -3.34159 -2.26556
|1958> C 73.98567 -1.64412 -1.56081
|1959> C 74.20875 -2.66671 -2.50243
|1960> C 73.17444 -3.52868 -2.83750
|1961> H 70.71151 -2.25490 -0.85897
|1962> H 71.11490 -4.02977 -2.54406
|1963> H 74.85599 -1.03933 -1.31278
|1964> H 75.19570 -2.81081 -2.93765
|1965> S 73.47788 -4.90691 -3.99532
|1966> O 74.80406 -4.62972 -4.53086
|1967> O 72.38096 -4.76327 -4.95427
|1968> O 73.39229 -6.07253 -3.11734
|1969> C 74.00084 0.17269 0.67907
|1970> C 75.27040 0.60138 1.44412
|1971> H 73.66419 0.97252 0.00816
|1972> H 74.18525 -0.72016 0.07705
|1973> C 74.97812 1.86482 2.32082
|1974> C 73.72457 2.05645 2.96132
|1975> C 73.45256 3.17410 3.77853
|1976> C 74.44529 4.12181 4.00399
|1977> C 75.69488 3.96030 3.41290
|1978> C 75.95875 2.83727 2.60215
|1979> H 72.91525 1.33948 2.85751
|1980> H 72.47907 3.30537 4.24789
|1981> H 76.46876 4.70281 3.59458
|1982> H 76.97019 2.76139 2.21777
|1983> S 74.10388 5.57323 5.04629
|1984> O 72.71120 5.88713 4.73057
|1985> O 75.07496 6.56080 4.58268
|1986> O 74.33720 5.04859 6.38914
|1987> C 76.44348 0.69540 0.37329
|1988> H 75.51346 -0.19113 2.16480
|1989> C 77.49959 -0.48614 0.33166
|1990> H 76.99667 1.61017 0.59591
|1991> H 76.03494 0.88109 -0.62666
|1992> C 77.63951 -1.44035 -0.90706
|1993> H 77.30505 -1.16032 1.17540
|1994> C 76.60027 -2.31126 -1.31037
|1995> C 76.81527 -3.34159 -2.26556
|1996> C 78.88850 -1.64412 -1.56081
|1997> C 79.11158 -2.66671 -2.50243
|1998> C 78.07727 -3.52868 -2.83750
|1999> H 75.61434 -2.25490 -0.85897
|2000> H 76.01773 -4.02977 -2.54406
|2001> H 79.75882 -1.03933 -1.31278
|2002> H 80.09853 -2.81081 -2.93765
|2003> S 78.38071 -4.90691 -3.99532
|2004> O 79.70689 -4.62972 -4.53086
|2005> O 77.28379 -4.76327 -4.95427
|2006> O 78.29512 -6.07253 -3.11734
|2007> H 78.90367 0.17269 0.67907
|2008> **                         ****END OF INPUT****
================================================================================

                       *****************************
                       * Geometry Optimization Run *
                       *****************************

Geometry optimization settings:
Update method            Update   .... BFGS
Choice of coordinates    CoordSys .... Redundant Internals
Initial Hessian          InHess   .... Almoef's Model

Convergence Tolerances:
Energy Change            TolE     ....  5.0000e-06 Eh
Max. Gradient            TolMAXG  ....  3.0000e-04 Eh/bohr
RMS Gradient             TolRMSG  ....  1.0000e-04 Eh/bohr
Max. Displacement        TolMAXD  ....  4.0000e-03 bohr
RMS Displacement         TolRMSD  ....  2.0000e-03 bohr

------------------------------------------------------------------------------
                        ORCA OPTIMIZATION COORDINATE SETUP
------------------------------------------------------------------------------

The optimization will be done in new redundant internal coordinates
Making redundant internal coordinates   ...  (new redundants) done
Evaluating the initial hessian          ...  (Almloef) done
Evaluating the coordinates              ...  done
Calculating the B-matrix                .... done
Calculating the G-matrix                .... done
Diagonalizing the G-matrix              .... done
Small eigenvalue found = 4.904e-07
Small eigenvalue found = 5.439e-07
Small eigenvalue found = 7.444e-07
Small eigenvalue found = 7.969e-07
Small eigenvalue found = 8.849e-07
Small eigenvalue found = 8.950e-07
Small eigenvalue found = 9.011e-07
Small eigenvalue found = 9.053e-07
Small eigenvalue found = 9.092e-07
Small eigenvalue found = 9.117e-07
Small eigenvalue found = 9.149e-07
Small eigenvalue found = 9.439e-07
Small eigenvalue found = 1.178e-06
Small eigenvalue found = 1.267e-06
Small eigenvalue found = 1.409e-06
Small eigenvalue found = 1.536e-06
Small eigenvalue found = 1.583e-06
Small eigenvalue found = 1.648e-06
Small eigenvalue found = 1.666e-06
Small eigenvalue found = 1.697e-06
Small eigenvalue found = 1.706e-06
Small eigenvalue found = 1.715e-06
Small eigenvalue found = 1.909e-06
Small eigenvalue found = 2.211e-06
Small eigenvalue found = 2.392e-06
Small eigenvalue found = 2.431e-06
Small eigenvalue found = 2.526e-06
Small eigenvalue found = 2.566e-06
Small eigenvalue found = 2.582e-06
Small eigenvalue found = 2.595e-06
Small eigenvalue found = 2.603e-06
Small eigenvalue found = 2.609e-06
Small eigenvalue found = 2.760e-06
Small eigenvalue found = 5.265e-06
Small eigenvalue found = 5.454e-06
Small eigenvalue found = 6.498e-06
Small eigenvalue found = 7.612e-06
Small eigenvalue found = 7.975e-06
Small eigenvalue found = 9.000e-06
Small eigenvalue found = 9.670e-06
Small eigenvalue found = 1.004e-05
Small eigenvalue found = 1.025e-05
Small eigenvalue found = 1.037e-05
Small eigenvalue found = 1.388e-05
Small eigenvalue found = 1.627e-05
Small eigenvalue found = 1.917e-05
Small eigenvalue found = 2.088e-05
Small eigenvalue found = 2.592e-05
Small eigenvalue found = 3.044e-05
Small eigenvalue found = 3.173e-05
Small eigenvalue found = 3.238e-05
Small eigenvalue found = 3.261e-05
Small eigenvalue found = 3.279e-05
[...]
Atom 1496H    basis set group =>   1
Atom 1497H    basis set group =>   1
Atom 1498C    basis set group =>   2
Atom 1499H    basis set group =>   1
Atom 1500H    basis set group =>   1
Atom 1501H    basis set group =>   1
Atom 1502H    basis set group =>   1
Atom 1503H    basis set group =>   1
Atom 1504C    basis set group =>   2
Atom 1505H    basis set group =>   1
Atom 1506C    basis set group =>   2
Atom 1507H    basis set group =>   1
Atom 1508H    basis set group =>   1
Atom 1509C    basis set group =>   2
Atom 1510O    basis set group =>   4
Atom 1511O    basis set group =>   4
Atom 1512C    basis set group =>   2
Atom 1513C    basis set group =>   2
Atom 1514H    basis set group =>   1
Atom 1515H    basis set group =>   1
Atom 1516O    basis set group =>   4
Atom 1517H    basis set group =>   1
Atom 1518H    basis set group =>   1
Atom 1519C    basis set group =>   2
Atom 1520C    basis set group =>   2
Atom 1521H    basis set group =>   1
Atom 1522H    basis set group =>   1
Atom 1523O    basis set group =>   4
Atom 1524H    basis set group =>   1
Atom 1525H    basis set group =>   1
Atom 1526C    basis set group =>   2
Atom 1527C    basis set group =>   2
Atom 1528H    basis set group =>   1
Atom 1529H    basis set group =>   1
Atom 1530O    basis set group =>   4
Atom 1531H    basis set group =>   1
Atom 1532H    basis set group =>   1
Atom 1533C    basis set group =>   2
Atom 1534O    basis set group =>   4
Atom 1535C    basis set group =>   2
Atom 1536C    basis set group =>   2
Atom 1537H    basis set group =>   1
Atom 1538H    basis set group =>   1
Atom 1539O    basis set group =>   4
Atom 1540H    basis set group =>   1
Atom 1541H    basis set group =>   1
Atom 1542C    basis set group =>   2
Atom 1543C    basis set group =>   2
Atom 1544H    basis set group =>   1
Atom 1545H    basis set group =>   1
Atom 1546O    basis set group =>   4
Atom 1547H    basis set group =>   1
Atom 1548H    basis set group =>   1
Atom 1549C    basis set group =>   2
Atom 1550C    basis set group =>   2
Atom 1551H    basis set group =>   1
Atom 1552H    basis set group =>   1
Atom 1553O    basis set group =>   4
Atom 1554H    basis set group =>   1
Atom 1555H    basis set group =>   1
Atom 1556C    basis set group =>   2
Atom 1557C    basis set group =>   2
Atom 1558H    basis set group =>   1
Atom 1559H    basis set group =>   1
Atom 1560O    basis set group =>   4
Atom 1561H    basis set group =>   1
Atom 1562H    basis set group =>   1
Atom 1563C    basis set group =>   2
Atom 1564C    basis set group =>   2
Atom 1565H    basis set group =>   1
Atom 1566H    basis set group =>   1
Atom 1567O    basis set group =>   4
Atom 1568H    basis set group =>   1
Atom 1569H    basis set group =>   1
Atom 1570C    basis set group =>   2
Atom 1571C    basis set group =>   2
Atom 1572H    basis set group =>   1
Atom 1573H    basis set group =>   1
Atom 1574O    basis set group =>   4
Atom 1575H    basis set group =>   1
Atom 1576H    basis set group =>   1
Atom 1577C    basis set group =>   2
Atom 1578H    basis set group =>   1
Atom 1579H    basis set group =>   1
Atom 1580H    basis set group =>   1
Atom 1581C    basis set group =>   2
Atom 1582H    basis set group =>   1
Atom 1583H    basis set group =>   1
Atom 1584H    basis set group =>   1
Atom 1585H    basis set group =>   1
Atom 1586C    basis set group =>   2
Atom 1587H    basis set group =>   1
Atom 1588C    basis set group =>   2
Atom 1589H    basis set group =>   1
Atom 1590H    basis set group =>   1
Atom 1591C    basis set group =>   2
Atom 1592H    basis set group =>   1
Atom 1593O    basis set group =>   4
Atom 1594C    basis set group =>   2
Atom 1595O    basis set group =>   4
Atom 1596C    basis set group =>   2
Atom 1597H    basis set group =>   1
Atom 1598H    basis set group =>   1
Atom 1599O    basis set group =>   4
Atom 1600H    basis set group =>   1
Atom 1601H    basis set group =>   1
Atom 1602C    basis set group =>   2
Atom 1603C    basis set group =>   2
Atom 1604H    basis set group =>   1
Atom 1605H    basis set group =>   1
Atom 1606O    basis set group =>   4
Atom 1607H    basis set group =>   1
Atom 1608H    basis set group =>   1
Atom 1609C    basis set group =>   2
Atom 1610C    basis set group =>   2
Atom 1611H    basis set group =>   1
Atom 1612H    basis set group =>   1
Atom 1613O    basis set group =>   4
Atom 1614H    basis set group =>   1
Atom 1615H    basis set group =>   1
Atom 1616C    basis set group =>   2
Atom 1617C    basis set group =>   2
Atom 1618H    basis set group =>   1
Atom 1619H    basis set group =>   1
Atom 1620O    basis set group =>   4
Atom 1621H    basis set group =>   1
Atom 1622H    basis set group =>   1
Atom 1623C    basis set group =>   2
Atom 1624C    basis set group =>   2
Atom 1625H    basis set group =>   1
Atom 1626H    basis set group =>   1
Atom 1627O    basis set group =>   4
Atom 1628H    basis set group =>   1
Atom 1629H    basis set group =>   1
Atom 1630C    basis set group =>   2
Atom 1631C    basis set group =>   2
Atom 1632H    basis set group =>   1
Atom 1633H    basis set group =>   1
Atom 1634O    basis set group =>   4
Atom 1635H    basis set group =>   1
Atom 1636H    basis set group =>   1
Atom 1637C    basis set group =>   2
Atom 1638C    basis set group =>   2
Atom 1639H    basis set group =>   1
Atom 1640H    basis set group =>   1
Atom 1641O    basis set group =>   4
Atom 1642H    basis set group =>   1
Atom 1643H    basis set group =>   1
Atom 1644C    basis set group =>   2
Atom 1645C    basis set group =>   2
Atom 1646H    basis set group =>   1
Atom 1647H    basis set group =>   1
Atom 1648O    basis set group =>   4
Atom 1649H    basis set group =>   1
Atom 1650H    basis set group =>   1
Atom 1651C    basis set group =>   2
Atom 1652C    basis set group =>   2
Atom 1653H    basis set group =>   1
Atom 1654H    basis set group =>   1
Atom 1655O    basis set group =>   4
Atom 1656H    basis set group =>   1
Atom 1657H    basis set group =>   1
Atom 1658C    basis set group =>   2
Atom 1659C    basis set group =>   2
Atom 1660H    basis set group =>   1
Atom 1661H    basis set group =>   1
Atom 1662O    basis set group =>   4
Atom 1663H    basis set group =>   1
Atom 1664H    basis set group =>   1
Atom 1665C    basis set group =>   2
Atom 1666H    basis set group =>   1
Atom 1667H    basis set group =>   1
Atom 1668H    basis set group =>   1
Atom 1669H    basis set group =>   1
Atom 1670H    basis set group =>   1
Atom 1671C    basis set group =>   2
Atom 1672H    basis set group =>   1
Atom 1673C    basis set group =>   2
Atom 1674H    basis set group =>   1
Atom 1675H    basis set group =>   1
Atom 1676C    basis set group =>   2
Atom 1677O    basis set group =>   4
Atom 1678O    basis set group =>   4
Atom 1679C    basis set group =>   2
Atom 1680C    basis set group =>   2
Atom 1681H    basis set group =>   1
Atom 1682H    basis set group =>   1
Atom 1683O    basis set group =>   4
Atom 1684H    basis set group =>   1
Atom 1685H    basis set group =>   1
Atom 1686C    basis set group =>   2
Atom 1687C    basis set group =>   2
Atom 1688H    basis set group =>   1
Atom 1689H    basis set group =>   1
Atom 1690O    basis set group =>   4
Atom 1691H    basis set group =>   1
Atom 1692H    basis set group =>   1
Atom 1693C    basis set group =>   2
Atom 1694C    basis set group =>   2
Atom 1695H    basis set group =>   1
Atom 1696H    basis set group =>   1
Atom 1697O    basis set group =>   4
Atom 1698H    basis set group =>   1
Atom 1699H    basis set group =>   1
Atom 1700C    basis set group =>   2
Atom 1701O    basis set group =>   4
Atom 1702C    basis set group =>   2
Atom 1703C    basis set group =>   2
Atom 1704H    basis set group =>   1
Atom 1705H    basis set group =>   1
Atom 1706O    basis set group =>   4
Atom 1707H    basis set group =>   1
Atom 1708H    basis set group =>   1
Atom 1709C    basis set group =>   2
Atom 1710C    basis set group =>   2
Atom 1711H    basis set group =>   1
Atom 1712H    basis set group =>   1
Atom 1713O    basis set group =>   4
Atom 1714H    basis set group =>   1
Atom 1715H    basis set group =>   1
Atom 1716C    basis set group =>   2
Atom 1717C    basis set group =>   2
Atom 1718H    basis set group =>   1
Atom 1719H    basis set group =>   1
Atom 1720O    basis set group =>   4
Atom 1721H    basis set group =>   1
Atom 1722H    basis set group =>   1
Atom 1723C    basis set group =>   2
Atom 1724C    basis set group =>   2
Atom 1725H    basis set group =>   1
Atom 1726H    basis set group =>   1
Atom 1727O    basis set group =>   4
Atom 1728H    basis set group =>   1
Atom 1729H    basis set group =>   1
Atom 1730C    basis set group =>   2
Atom 1731C    basis set group =>   2
Atom 1732H    basis set group =>   1
Atom 1733H    basis set group =>   1
Atom 1734O    basis set group =>   4
Atom 1735H    basis set group =>   1
Atom 1736H    basis set group =>   1
Atom 1737C    basis set group =>   2
Atom 1738C    basis set group =>   2
Atom 1739H    basis set group =>   1
Atom 1740H    basis set group =>   1
Atom 1741O    basis set group =>   4
Atom 1742H    basis set group =>   1
Atom 1743H    basis set group =>   1
Atom 1744C    basis set group =>   2
Atom 1745H    basis set group =>   1
Atom 1746H    basis set group =>   1
Atom 1747H    basis set group =>   1
Atom 1748C    basis set group =>   2
Atom 1749H    basis set group =>   1
Atom 1750H    basis set group =>   1
Atom 1751H    basis set group =>   1
Atom 1752H    basis set group =>   1
Atom 1753C    basis set group =>   2
Atom 1754H    basis set group =>   1
Atom 1755C    basis set group =>   2
Atom 1756H    basis set group =>   1
Atom 1757H    basis set group =>   1
Atom 1758C    basis set group =>   2
Atom 1759H    basis set group =>   1
Atom 1760O    basis set group =>   4
Atom 1761C    basis set group =>   2
Atom 1762O    basis set group =>   4
Atom 1763C    basis set group =>   2
Atom 1764H    basis set group =>   1
Atom 1765H    basis set group =>   1
Atom 1766O    basis set group =>   4
Atom 1767H    basis set group =>   1
Atom 1768H    basis set group =>   1
Atom 1769C    basis set group =>   2
Atom 1770C    basis set group =>   2
Atom 1771H    basis set group =>   1
Atom 1772H    basis set group =>   1
Atom 1773O    basis set group =>   4
Atom 1774H    basis set group =>   1
Atom 1775H    basis set group =>   1
Atom 1776C    basis set group =>   2
Atom 1777C    basis set group =>   2
Atom 1778H    basis set group =>   1
Atom 1779H    basis set group =>   1
Atom 1780O    basis set group =>   4
Atom 1781H    basis set group =>   1
Atom 1782H    basis set group =>   1
Atom 1783C    basis set group =>   2
Atom 1784C    basis set group =>   2
Atom 1785H    basis set group =>   1
Atom 1786H    basis set group =>   1
Atom 1787O    basis set group =>   4
Atom 1788H    basis set group =>   1
Atom 1789H    basis set group =>   1
Atom 1790C    basis set group =>   2
Atom 1791C    basis set group =>   2
Atom 1792H    basis set group =>   1
Atom 1793H    basis set group =>   1
Atom 1794O    basis set group =>   4
Atom 1795H    basis set group =>   1
Atom 1796H    basis set group =>   1
Atom 1797C    basis set group =>   2
Atom 1798C    basis set group =>   2
Atom 1799H    basis set group =>   1
Atom 1800H    basis set group =>   1
Atom 1801O    basis set group =>   4
Atom 1802H    basis set group =>   1
Atom 1803H    basis set group =>   1
Atom 1804C    basis set group =>   2
Atom 1805C    basis set group =>   2
Atom 1806H    basis set group =>   1
Atom 1807H    basis set group =>   1
Atom 1808O    basis set group =>   4
Atom 1809H    basis set group =>   1
Atom 1810H    basis set group =>   1
Atom 1811C    basis set group =>   2
Atom 1812C    basis set group =>   2
Atom 1813H    basis set group =>   1
Atom 1814H    basis set group =>   1
Atom 1815O    basis set group =>   4
Atom 1816H    basis set group =>   1
Atom 1817H    basis set group =>   1
Atom 1818C    basis set group =>   2
Atom 1819C    basis set group =>   2
Atom 1820H    basis set group =>   1
Atom 1821H    basis set group =>   1
Atom 1822O    basis set group =>   4
Atom 1823H    basis set group =>   1
Atom 1824H    basis set group =>   1
Atom 1825C    basis set group =>   2
Atom 1826C    basis set group =>   2
Atom 1827H    basis set group =>   1
Atom 1828H    basis set group =>   1
Atom 1829O    basis set group =>   4
Atom 1830H    basis set group =>   1
Atom 1831H    basis set group =>   1
Atom 1832C    basis set group =>   2
Atom 1833H    basis set group =>   1
Atom 1834H    basis set group =>   1
Atom 1835H    basis set group =>   1
Atom 1836H    basis set group =>   1
Atom 1837C    basis set group =>   2
Atom 1838C    basis set group =>   2
Atom 1839H    basis set group =>   1
Atom 1840H    basis set group =>   1
Atom 1841O    basis set group =>   4
Atom 1842H    basis set group =>   1
Atom 1843H    basis set group =>   1
Atom 1844C    basis set group =>   2
Atom 1845C    basis set group =>   2
Atom 1846H    basis set group =>   1
Atom 1847H    basis set group =>   1
Atom 1848O    basis set group =>   4
Atom 1849H    basis set group =>   1
Atom 1850H    basis set group =>   1
Atom 1851C    basis set group =>   2
Atom 1852C    basis set group =>   2
Atom 1853H    basis set group =>   1
Atom 1854H    basis set group =>   1
Atom 1855C    basis set group =>   2
Atom 1856C    basis set group =>   2
Atom 1857C    basis set group =>   2
Atom 1858C    basis set group =>   2
Atom 1859C    basis set group =>   2
Atom 1860C    basis set group =>   2
Atom 1861H    basis set group =>   1
Atom 1862H    basis set group =>   1
Atom 1863H    basis set group =>   1
Atom 1864H    basis set group =>   1
Atom 1865S    basis set group =>   3
Atom 1866O    basis set group =>   4
Atom 1867O    basis set group =>   4
Atom 1868O    basis set group =>   4
Atom 1869C    basis set group =>   2
Atom 1870H    basis set group =>   1
Atom 1871C    basis set group =>   2
Atom 1872H    basis set group =>   1
Atom 1873H    basis set group =>   1
Atom 1874C    basis set group =>   2
Atom 1875H    basis set group =>   1
Atom 1876C    basis set group =>   2
Atom 1877C    basis set group =>   2
Atom 1878C    basis set group =>   2
Atom 1879C    basis set group =>   2
Atom 1880C    basis set group =>   2
Atom 1881H    basis set group =>   1
Atom 1882H    basis set group =>   1
Atom 1883H    basis set group =>   1
Atom 1884H    basis set group =>   1
Atom 1885S    basis set group =>   3
Atom 1886O    basis set group =>   4
Atom 1887O    basis set group =>   4
Atom 1888O    basis set group =>   4
Atom 1889C    basis set group =>   2
Atom 1890C    basis set group =>   2
Atom 1891H    basis set group =>   1
Atom 1892H    basis set group =>   1
Atom 1893C    basis set group =>   2
Atom 1894C    basis set group =>   2
Atom 1895C    basis set group =>   2
Atom 1896C    basis set group =>   2
Atom 1897C    basis set group =>   2
Atom 1898C    basis set group =>   2
Atom 1899H    basis set group =>   1
Atom 1900H    basis set group =>   1
Atom 1901H    basis set group =>   1
Atom 1902H    basis set group =>   1
Atom 1903S    basis set group =>   3
Atom 1904O    basis set group =>   4
Atom 1905O    basis set group =>   4
Atom 1906O    basis set group =>   4
Atom 1907C    basis set group =>   2
Atom 1908H    basis set group =>   1
Atom 1909C    basis set group =>   2
Atom 1910H    basis set group =>   1
Atom 1911H    basis set group =>   1
Atom 1912C    basis set group =>   2
Atom 1913H    basis set group =>   1
Atom 1914C    basis set group =>   2
Atom 1915C    basis set group =>   2
Atom 1916C    basis set group =>   2
Atom 1917C    basis set group =>   2
Atom 1918C    basis set group =>   2
Atom 1919H    basis set group =>   1
Atom 1920H    basis set group =>   1
Atom 1921H    basis set group =>   1
Atom 1922H    basis set group =>   1
Atom 1923S    basis set group =>   3
Atom 1924O    basis set group =>   4
Atom 1925O    basis set group =>   4
Atom 1926O    basis set group =>   4
Atom 1927C    basis set group =>   2
Atom 1928C    basis set group =>   2
Atom 1929H    basis set group =>   1
Atom 1930H    basis set group =>   1
Atom 1931C    basis set group =>   2
Atom 1932C    basis set group =>   2
Atom 1933C    basis set group =>   2
Atom 1934C    basis set group =>   2
Atom 1935C    basis set group =>   2
Atom 1936C    basis set group =>   2
Atom 1937H    basis set group =>   1
Atom 1938H    basis set group =>   1
Atom 1939H    basis set group =>   1
Atom 1940H    basis set group =>   1
Atom 1941S    basis set group =>   3
Atom 1942O    basis set group =>   4
Atom 1943O    basis set group =>   4
Atom 1944O    basis set group =>   4
Atom 1945C    basis set group =>   2
Atom 1946H    basis set group =>   1
Atom 1947C    basis set group =>   2
Atom 1948H    basis set group =>   1
Atom 1949H    basis set group =>   1
Atom 1950C    basis set group =>   2
Atom 1951H    basis set group =>   1
Atom 1952C    basis set group =>   2
Atom 1953C    basis set group =>   2
Atom 1954C    basis set group =>   2
Atom 1955C    basis set group =>   2
Atom 1956C    basis set group =>   2
Atom 1957H    basis set group =>   1
Atom 1958H    basis set group =>   1
Atom 1959H    basis set group =>   1
Atom 1960H    basis set group =>   1
Atom 1961S    basis set group =>   3
Atom 1962O    basis set group =>   4
Atom 1963O    basis set group =>   4
Atom 1964O    basis set group =>   4
Atom 1965C    basis set group =>   2
Atom 1966C    basis set group =>   2
Atom 1967H    basis set group =>   1
Atom 1968H    basis set group =>   1
Atom 1969C    basis set group =>   2
Atom 1970C    basis set group =>   2
Atom 1971C    basis set group =>   2
Atom 1972C    basis set group =>   2
Atom 1973C    basis set group =>   2
Atom 1974C    basis set group =>   2
Atom 1975H    basis set group =>   1
Atom 1976H    basis set group =>   1
Atom 1977H    basis set group =>   1
Atom 1978H    basis set group =>   1
Atom 1979S    basis set group =>   3
Atom 1980O    basis set group =>   4
Atom 1981O    basis set group =>   4
Atom 1982O    basis set group =>   4
Atom 1983C    basis set group =>   2
Atom 1984H    basis set group =>   1
Atom 1985C    basis set group =>   2
Atom 1986H    basis set group =>   1
Atom 1987H    basis set group =>   1
Atom 1988C    basis set group =>   2
Atom 1989H    basis set group =>   1
Atom 1990C    basis set group =>   2
Atom 1991C    basis set group =>   2
Atom 1992C    basis set group =>   2
Atom 1993C    basis set group =>   2
Atom 1994C    basis set group =>   2
Atom 1995H    basis set group =>   1
Atom 1996H    basis set group =>   1
Atom 1997H    basis set group =>   1
Atom 1998H    basis set group =>   1
Atom 1999S    basis set group =>   3
Atom 2000O    basis set group =>   4
Atom 2001O    basis set group =>   4
Atom 2002O    basis set group =>   4
Atom 2003H    basis set group =>   1


           ************************************************************
           *        Program running with 8 parallel MPI-processes     *
           *              working on a common directory               *
           ************************************************************
------------------------------------------------------------------------------
                           ORCA GTO INTEGRAL CALCULATION
------------------------------------------------------------------------------

                         BASIS SET STATISTICS AND STARTUP INFO

 # of primitive gaussian shells          ... 21300
 # of primitive gaussian functions       ... 36588
 # of contracted shell                   ... 10664
 # of contracted basis functions         ... 22096
 Highest angular momentum                ...    2
 Maximum contraction depth               ...    6
 Integral package used                   ... LIBINT
 Integral threshhold            Thresh   ...  2.500e-11
 Primitive cut-off              TCut     ...  2.500e-12


                              INTEGRAL EVALUATION

 One electron integrals    ORCA finished by error termination in ORCA_GTOInt
