LAMMPS data file via System.Write_LAMMPS_Data()

762 atoms
12 atom types
801 bonds
12 bond types
1480 angles
37 angle types
1117 dihedrals
5 dihedral types
120 impropers
1 improper types


0.0000 100.0000 xlo xhi
0.0000 100.0000 ylo yhi
0.0000 100.0000 zlo zhi


Masses

1 1.008
2 12.011
3 12.011
4 12.011
5 1.008
6 32.060
7 12.011
8 12.011
9 12.011
10 12.011
11 15.999
12 12.011


Pair Coeffs # lj/cut/coul/long

1 0.030 2.500
2 0.070 3.550
3 0.070 3.550
4 0.066 3.469
5 0.030 2.420
6 0.250 3.550
7 0.066 3.500
8 0.066 3.500
9 0.070 3.550
10 0.070 3.550
11 0.170 3.000
12 0.076 3.550


Bond Coeffs # harmonic

1 469.0000 1.4000
2 367.0000 1.0800
3 250.0000 1.7600
4 317.0000 1.5100
5 268.0000 1.5290
6 340.0000 1.0900
7 0.0000 0.3712
8 546.0000 1.3670
9 340.0000 1.3600
10 512.0000 1.3750
11 0.0000 0.6506
12 340.0000 1.0800


Angle Coeffs # harmonic

1 85.0000 119.4000
2 63.0000 120.0000
3 35.0000 120.0000
4 70.0000 120.0000
5 172.7200 92.7740
6 33.0000 107.8000
7 35.0000 109.5000
8 37.5000 110.7000
9 63.0000 114.0000
10 58.3500 112.7000
11 35.0000 0.3638
12 35.0000 0.3575
13 35.0000 0.5563
14 70.0000 107.4000
15 35.0000 0.5374
16 35.0000 0.5448
17 35.0000 0.4416
18 35.0000 126.9000
19 35.0000 0.4023
20 70.0000 106.5000
21 35.0000 0.4154
22 35.0000 0.4206
23 35.0000 0.4264
24 35.0000 0.4311
25 35.0000 0.4236
26 35.0000 0.4169
27 35.0000 0.4354
28 35.0000 0.5403
29 35.0000 0.5333
30 35.0000 0.4081
31 35.0000 0.5406
32 35.0000 0.5336
33 35.0000 0.3558
34 35.0000 0.3601
35 35.0000 0.3601
36 35.0000 0.4294
37 35.0000 0.4284


Dihedral Coeffs # opls

1 0.0000 0.0000 0.0000 0.0000
2 0.0000 7.2500 0.0000 0.0000
3 0.0000 0.0000 0.4620 0.0000
4 0.0000 0.0000 0.3000 0.0000
5 1.3000 -0.0500 0.2000 0.0000


Improper Coeffs # harmonic

1 5.0000 -1 2


Atoms # full

1 1 1 0.07051385 47.7422 82.7436 58.6624
2 1 2 0.08531385 53.4774 78.0788 58.6602
3 1 3 -0.10448615 53.9979 79.3504 58.5786
4 1 4 0.00000000 53.0345 80.4123 58.5804
5 1 5 0.12551385 55.0640 79.5262 58.5233
6 1 6 -0.13908615 51.8071 78.1522 58.7296
7 1 2 0.08531385 51.7489 79.8758 58.6431
8 1 7 -0.10948615 53.4643 81.8655 58.5162
9 1 7 -0.10948615 54.9957 82.0609 58.4598
10 1 1 0.07051385 53.0813 82.3822 59.4031
11 1 1 0.07051385 53.0213 82.3242 57.6256
12 1 7 -0.10948615 55.4246 83.5228 58.4089
13 1 1 0.07051385 55.4002 81.5503 57.5750
14 1 1 0.07051385 55.4605 81.5960 59.3401
15 1 8 -0.16948615 56.9436 83.6380 58.3459
16 1 1 0.07051385 55.0590 84.0484 59.2973
17 1 1 0.07051385 54.9885 84.0082 57.5296
18 1 1 0.07051385 57.4114 83.1784 59.2234
19 1 1 0.07051385 57.2458 84.6889 58.3122
20 1 1 0.07051385 57.3403 83.1421 57.4533
21 1 2 0.08531385 50.4249 80.4672 58.6529
22 1 6 -0.13908615 50.0968 82.1407 58.6285
23 1 3 -0.10448615 49.2332 79.7568 58.6833
24 1 4 0.00000000 48.0539 80.5535 58.6952
25 1 5 0.12551385 49.1974 78.6746 58.7001
26 1 9 -0.13068615 48.4031 81.8889 58.6648
27 1 7 -0.10948615 46.6467 80.0167 58.7330
28 1 7 -0.10948615 46.5421 78.4835 58.7919
29 1 1 0.07051385 46.1193 80.3766 57.8414
30 1 1 0.07051385 46.1414 80.4421 59.6084
31 1 7 -0.10948615 45.0883 78.0159 58.8241
32 1 1 0.07051385 47.0612 78.1064 59.6831
33 1 1 0.07051385 47.0409 78.0394 57.9202
34 1 8 -0.16948615 44.9872 76.4989 58.8880
35 1 1 0.07051385 44.5662 78.3727 57.9293
36 1 1 0.07051385 44.5805 78.4464 59.6944
37 1 1 0.07051385 45.4619 76.0343 58.0176
38 1 1 0.07051385 43.9369 76.1911 58.9055
39 1 1 0.07051385 45.4695 76.1089 59.7903
40 1 2 0.08531385 59.2181 73.0689 58.6725
41 1 3 -0.10448615 59.7378 74.3383 58.5642
42 1 4 0.00000000 58.7648 75.3771 58.5795
43 1 5 0.12551385 60.8007 74.5283 58.4914
44 1 6 -0.13908615 57.5566 73.1059 58.7582
45 1 2 0.08531385 57.4964 74.8032 58.6565
46 1 7 -0.10948615 59.1605 76.8408 58.5136
47 1 7 -0.10948615 60.6809 77.0902 58.4550
48 1 1 0.07051385 58.7699 77.3473 59.4035
49 1 1 0.07051385 58.7035 77.2896 57.6247
50 1 7 -0.10948615 61.0405 78.5727 58.4096
51 1 1 0.07051385 61.1026 76.6001 57.5674
52 1 1 0.07051385 61.1645 76.6408 59.3328
53 1 8 -0.16948615 62.5506 78.7641 58.3458
54 1 1 0.07051385 60.6502 79.0780 59.2997
55 1 1 0.07051385 60.5797 79.0412 57.5333
56 1 1 0.07051385 63.0408 78.3266 59.2221
57 1 1 0.07051385 62.7992 79.8292 58.3147
58 1 1 0.07051385 62.9700 78.2914 57.4513
59 1 2 0.08531385 56.1808 75.3618 58.6755
60 1 6 -0.13908615 55.9268 77.0113 58.7031
61 1 3 -0.10448615 54.9796 74.6787 58.6875
62 1 4 0.00000000 53.8241 75.5162 58.7078
63 1 5 0.12551385 54.9160 73.5974 58.6837
64 1 2 0.08531385 54.2237 76.8513 58.6865
65 1 7 -0.10948615 52.4120 74.9737 58.7348
66 1 7 -0.10948615 52.2658 73.4441 58.7889
67 1 1 0.07051385 51.8912 75.3300 57.8384
68 1 1 0.07051385 51.9075 75.3835 59.6174
69 1 7 -0.10948615 50.7885 73.0442 58.8219
70 1 1 0.07051385 52.7693 73.0470 59.6797
71 1 1 0.07051385 52.7449 72.9855 57.9145
72 1 8 -0.16948615 50.6021 71.5368 58.8884
73 1 1 0.07051385 50.2837 73.4271 57.9275
74 1 1 0.07051385 50.3015 73.5020 59.6906
75 1 1 0.07051385 51.0487 71.0446 58.0189
76 1 1 0.07051385 49.5351 71.2913 58.9054
77 1 1 0.07051385 51.0586 71.1223 59.7927
78 1 2 0.08531385 64.9139 68.1575 58.6749
79 1 3 -0.10448615 65.4337 69.4252 58.5476
80 1 4 0.00000000 64.4543 70.4537 58.5723
81 1 5 0.12551385 66.4950 69.6208 58.4663
82 1 6 -0.13908615 63.2599 68.1751 58.7633
83 1 2 0.08531385 63.1971 69.8595 58.6592
84 1 7 -0.10948615 64.8269 71.9237 58.5085
85 1 7 -0.10948615 66.3405 72.2020 58.4481
86 1 1 0.07051385 64.4337 72.4221 59.4020
87 1 1 0.07051385 64.3580 72.3687 57.6235
88 1 7 -0.10948615 66.6662 73.6932 58.4075
89 1 1 0.07051385 66.7701 71.7232 57.5586
90 1 1 0.07051385 66.8333 71.7597 59.3241
91 1 8 -0.16948615 68.1710 73.9192 58.3443
92 1 1 0.07051385 66.2644 74.1876 59.2989
93 1 1 0.07051385 66.1945 74.1544 57.5329
94 1 1 0.07051385 68.6703 73.4914 59.2202
95 1 1 0.07051385 68.3954 74.9897 58.3150
96 1 1 0.07051385 68.6007 73.4574 57.4490
97 1 2 0.08531385 61.8808 70.3878 58.6944
98 1 6 -0.13908615 61.6351 72.0265 58.8018
99 1 3 -0.10448615 60.6869 69.6902 58.6838
100 1 4 0.00000000 59.5369 70.5221 58.7189
101 1 5 0.12551385 60.6242 68.6095 58.6511
102 1 2 0.08531385 59.9498 71.8506 58.7155
103 1 7 -0.10948615 58.1200 69.9969 58.7308
104 1 7 -0.10948615 57.9367 68.4756 58.7869
105 1 1 0.07051385 57.6117 70.3615 57.8302
106 1 1 0.07051385 57.6153 70.4123 59.6111
107 1 7 -0.10948615 56.4443 68.1307 58.8200
108 1 1 0.07051385 58.4273 68.0668 59.6791
109 1 1 0.07051385 58.4021 68.0034 57.9130
110 1 8 -0.16948615 56.1994 66.6334 58.8890
111 1 1 0.07051385 55.9535 68.5322 57.9255
112 1 1 0.07051385 55.9735 68.6087 59.6873
113 1 1 0.07051385 56.6273 66.1238 58.0203
114 1 1 0.07051385 55.1235 66.4305 58.9055
115 1 1 0.07051385 56.6387 66.2043 59.7947
116 1 2 0.08531385 70.5628 63.2804 58.6685
117 1 3 -0.10448615 71.0844 64.5469 58.5354
118 1 4 0.00000000 70.1029 65.5714 58.5644
119 1 5 0.12551385 72.1453 64.7444 58.4549
120 1 6 -0.13908615 68.9116 63.2891 58.7406
121 1 2 0.08531385 68.8512 64.9684 58.6561
122 1 7 -0.10948615 70.4640 67.0444 58.5056
123 1 7 -0.10948615 71.9733 67.3366 58.4430
124 1 1 0.07051385 70.0720 67.5370 59.4029
125 1 1 0.07051385 69.9869 67.4899 57.6249
126 1 7 -0.10948615 72.2820 68.8318 58.4057
127 1 1 0.07051385 72.4061 66.8638 57.5521
128 1 1 0.07051385 72.4710 66.8975 59.3178
129 1 8 -0.16948615 73.7841 69.0740 58.3432
130 1 1 0.07051385 71.8747 69.3204 59.2979
131 1 1 0.07051385 71.8051 69.2899 57.5322
132 1 1 0.07051385 74.2872 68.6505 59.2189
133 1 1 0.07051385 73.9972 70.1467 58.3150
134 1 1 0.07051385 74.2184 68.6173 57.4476
135 1 2 0.08531385 67.5368 65.4842 58.7117
136 1 6 -0.13908615 67.3010 67.1143 58.8941
137 1 3 -0.10448615 66.3447 64.7834 58.6852
138 1 4 0.00000000 65.2008 65.6160 58.7297
139 1 5 0.12551385 66.2788 63.7039 58.6290
140 1 2 0.08531385 65.6283 66.9394 58.7385
141 1 7 -0.10948615 63.7791 65.1021 58.7275
142 1 7 -0.10948615 63.5741 63.5852 58.7854
143 1 1 0.07051385 63.2805 65.4707 57.8229
144 1 1 0.07051385 63.2716 65.5212 59.6049
145 1 7 -0.10948615 62.0750 63.2665 58.8184
146 1 1 0.07051385 64.0574 63.1709 59.6788
147 1 1 0.07051385 64.0325 63.1057 57.9122
148 1 8 -0.16948615 61.8037 61.7742 58.8886
149 1 1 0.07051385 61.5908 63.6761 57.9238
150 1 1 0.07051385 61.6117 63.7532 59.6851
151 1 1 0.07051385 62.2231 61.2569 58.0204
152 1 1 0.07051385 60.7244 61.5900 58.9049
153 1 1 0.07051385 62.2353 61.3387 59.7950
154 1 2 0.08531385 76.1867 58.4193 58.6634
155 1 3 -0.10448615 76.7087 59.6856 58.5296
156 1 4 0.00000000 75.7258 60.7081 58.5604
157 1 5 0.12551385 77.7695 59.8844 58.4511
158 1 6 -0.13908615 74.5366 58.4234 58.7236
159 1 2 0.08531385 74.4770 60.1006 58.6543
160 1 7 -0.10948615 76.0810 62.1827 58.5045
161 1 7 -0.10948615 77.5884 62.4814 58.4406
162 1 1 0.07051385 75.6900 62.6723 59.4037
163 1 1 0.07051385 75.5996 62.6286 57.6262
164 1 7 -0.10948615 77.8899 63.9782 58.4048
165 1 1 0.07051385 78.0223 62.0113 57.5490
166 1 1 0.07051385 78.0883 62.0437 59.3148
167 1 8 -0.16948615 79.3908 64.2269 58.3427
168 1 1 0.07051385 77.4803 64.4643 59.2974
169 1 1 0.07051385 77.4109 64.4351 57.5318
170 1 1 0.07051385 79.8953 63.8050 59.2184
171 1 1 0.07051385 79.5995 65.3005 58.3149
172 1 1 0.07051385 79.8270 63.7722 57.4470
173 1 2 0.08531385 73.1634 60.6101 58.7227
174 1 6 -0.13908615 72.9318 62.2341 58.9483
175 1 3 -0.10448615 71.9720 59.9080 58.6882
176 1 4 0.00000000 70.8311 60.7412 58.7360
177 1 5 0.12551385 71.9045 58.8295 58.6195
178 1 2 0.08531385 71.2668 62.0619 58.7489
179 1 7 -0.10948615 69.4068 60.2334 58.7259
180 1 7 -0.10948615 69.1914 58.7187 58.7856
181 1 1 0.07051385 68.9138 60.6025 57.8184
182 1 1 0.07051385 68.8971 60.6556 59.6007
183 1 7 -0.10948615 67.6894 58.4117 58.8180
184 1 1 0.07051385 69.6711 58.3023 59.6797
185 1 1 0.07051385 69.6467 58.2356 57.9128
186 1 8 -0.16948615 67.4070 56.9216 58.8886
187 1 1 0.07051385 67.2082 58.8248 57.9233
188 1 1 0.07051385 67.2291 58.9022 59.6843
189 1 1 0.07051385 67.8229 56.4013 58.0206
190 1 1 0.07051385 66.3264 56.7453 58.9047
191 1 1 0.07051385 67.8352 56.4835 59.7953
192 1 2 0.08531385 81.8010 53.5638 58.6611
193 1 3 -0.10448615 82.3225 54.8306 58.5284
194 1 4 0.00000000 81.3387 55.8521 58.5595
195 1 5 0.12551385 83.3832 55.0303 58.4510
196 1 6 -0.13908615 80.1510 53.5662 58.7175
197 1 2 0.08531385 80.0911 55.2426 58.6542
198 1 7 -0.10948615 81.6908 57.3276 58.5043
199 1 7 -0.10948615 83.1971 57.6297 58.4398
200 1 1 0.07051385 81.2999 57.8162 59.4043
201 1 1 0.07051385 81.2074 57.7733 57.6270
202 1 7 -0.10948615 83.4951 59.1273 58.4045
203 1 1 0.07051385 83.6316 57.1607 57.5479
204 1 1 0.07051385 83.6981 57.1928 59.3138
205 1 8 -0.16948615 84.9955 59.3789 58.3425
206 1 1 0.07051385 83.0845 59.6124 59.2972
207 1 1 0.07051385 83.0152 59.5835 57.5316
208 1 1 0.07051385 85.5007 58.9579 59.2182
209 1 1 0.07051385 85.2022 60.4529 58.3149
210 1 1 0.07051385 85.4326 58.9252 57.4468
211 1 2 0.08531385 78.7777 55.7497 58.7274
212 1 6 -0.13908615 78.5477 57.3712 58.9693
213 1 3 -0.10448615 77.5864 55.0472 58.6899
214 1 4 0.00000000 76.4468 55.8810 58.7383
215 1 5 0.12551385 77.5180 53.9691 58.6167
216 1 2 0.08531385 76.8862 57.2004 58.7519
217 1 7 -0.10948615 75.0211 55.3761 58.7253
218 1 7 -0.10948615 74.8008 53.8626 58.7858
219 1 1 0.07051385 74.5303 55.7452 57.8166
220 1 1 0.07051385 74.5108 55.8002 59.5991
221 1 7 -0.10948615 73.2975 53.5608 58.8179
222 1 1 0.07051385 75.2787 53.4452 59.6804
223 1 1 0.07051385 75.2546 53.3778 57.9133
224 1 8 -0.16948615 73.0103 52.0717 58.8886
225 1 1 0.07051385 72.8176 53.9755 57.9232
226 1 1 0.07051385 72.8385 54.0529 59.6841
227 1 1 0.07051385 73.4249 51.5501 58.0207
228 1 1 0.07051385 71.9292 51.8986 58.9046
229 1 1 0.07051385 73.4373 51.6325 59.7954
230 1 2 0.08531385 87.4153 48.7066 58.6600
231 1 3 -0.10448615 87.9353 49.9747 58.5305
232 1 4 0.00000000 86.9503 50.9957 58.5611
233 1 5 0.12551385 88.9957 50.1760 58.4537
234 1 6 -0.13908615 85.7648 48.7091 58.7197
235 1 2 0.08531385 85.7031 50.3853 58.6558
236 1 7 -0.10948615 87.2999 52.4720 58.5051
237 1 7 -0.10948615 88.8053 52.7773 58.4399
238 1 1 0.07051385 86.9085 52.9604 59.4049
239 1 1 0.07051385 86.8154 52.9166 57.6277
240 1 7 -0.10948615 89.0999 54.2757 58.4045
241 1 1 0.07051385 89.2403 52.3091 57.5479
242 1 1 0.07051385 89.3073 52.3416 59.3138
243 1 8 -0.16948615 90.5997 54.5304 58.3424
244 1 1 0.07051385 88.6883 54.7601 59.2972
245 1 1 0.07051385 88.6189 54.7309 57.5317
246 1 1 0.07051385 91.1057 54.1102 59.2181
247 1 1 0.07051385 90.8044 55.6048 58.3149
248 1 1 0.07051385 91.0376 54.0775 57.4467
249 1 2 0.08531385 84.3895 50.8924 58.7284
250 1 6 -0.13908615 84.1601 52.5142 58.9703
251 1 3 -0.10448615 83.1976 50.1907 58.6904
252 1 4 0.00000000 82.0585 51.0255 58.7381
253 1 5 0.12551385 83.1285 49.1126 58.6173
254 1 2 0.08531385 82.4993 52.3446 58.7509
255 1 7 -0.10948615 80.6318 50.5226 58.7250
256 1 7 -0.10948615 80.4081 49.0099 58.7859
257 1 1 0.07051385 80.1415 50.8922 57.8162
258 1 1 0.07051385 80.1220 50.9478 59.5987
259 1 7 -0.10948615 78.9041 48.7114 58.8179
260 1 1 0.07051385 80.8851 48.5919 59.6806
261 1 1 0.07051385 80.8610 48.5242 57.9135
262 1 8 -0.16948615 78.6140 47.2229 58.8887
263 1 1 0.07051385 78.4249 49.1270 57.9232
264 1 1 0.07051385 78.4459 49.2045 59.6840
265 1 1 0.07051385 79.0277 46.7006 58.0208
266 1 1 0.07051385 77.5326 47.0517 58.9046
267 1 1 0.07051385 79.0401 46.7830 59.7955
268 1 2 0.08531385 93.0399 43.8411 58.6578
269 1 3 -0.10448615 93.5557 45.1128 58.5404
270 1 4 0.00000000 92.5682 46.1324 58.5697
271 1 5 0.12551385 94.6152 45.3179 58.4624
272 1 6 -0.13908615 91.3884 43.8448 58.7417
273 1 2 0.08531385 91.3213 45.5209 58.6644
274 1 7 -0.10948615 92.9137 47.6098 58.5088
275 1 7 -0.10948615 94.4174 47.9207 58.4418
276 1 1 0.07051385 92.5207 48.0997 59.4072
277 1 1 0.07051385 92.4279 48.0505 57.6300
278 1 7 -0.10948615 94.7056 49.4204 58.4049
279 1 1 0.07051385 94.8531 47.4535 57.5496
280 1 1 0.07051385 94.9219 47.4877 59.3155
281 1 8 -0.16948615 96.2043 49.6812 58.3422
282 1 1 0.07051385 94.2923 49.9040 59.2973
283 1 1 0.07051385 94.2224 49.8732 57.5319
284 1 1 0.07051385 96.7121 49.2632 59.2178
285 1 1 0.07051385 96.4047 50.7564 58.3145
286 1 1 0.07051385 96.6435 49.2299 57.4464
287 1 2 0.08531385 90.0065 46.0300 58.7284
288 1 6 -0.13908615 89.7771 47.6552 58.9524
289 1 3 -0.10448615 88.8133 45.3303 58.6902
290 1 4 0.00000000 87.6742 46.1673 58.7347
291 1 5 0.12551385 88.7433 44.2520 58.6219
292 1 2 0.08531385 88.1148 47.4867 58.7451
293 1 7 -0.10948615 86.2460 45.6675 58.7245
294 1 7 -0.10948615 86.0177 44.1558 58.7855
295 1 1 0.07051385 85.7550 46.0384 57.8165
296 1 1 0.07051385 85.7385 46.0938 59.5990
297 1 7 -0.10948615 84.5125 43.8620 58.8177
298 1 1 0.07051385 86.4933 43.7366 59.6804
299 1 1 0.07051385 86.4690 43.6688 57.9131
300 1 8 -0.16948615 84.2181 42.3743 58.8886
301 1 1 0.07051385 84.0343 44.2789 57.9231
302 1 1 0.07051385 84.0557 44.3565 59.6838
303 1 1 0.07051385 84.6304 41.8509 58.0208
304 1 1 0.07051385 83.1363 42.2061 58.9045
305 1 1 0.07051385 84.6430 41.9334 59.7955
306 1 2 0.08531385 98.6850 38.9516 58.7703
307 1 3 -0.10448615 99.2022 40.2185 58.6054
308 1 4 0.00000000 98.2109 41.2409 58.5909
309 1 5 0.12551385 100.2627 40.4184 58.5223
310 1 6 -0.13908615 97.0286 38.9629 58.8287
311 1 2 0.08531385 96.9593 40.6354 58.6793
312 1 7 -0.10948615 98.5486 42.7198 58.5018
313 1 7 -0.10948615 100.0477 43.0452 58.4389
314 1 1 0.07051385 98.1455 43.2213 59.3898
315 1 1 0.07051385 98.0646 43.1434 57.6134
316 1 7 -0.10948615 100.3168 44.5496 58.4003
317 1 1 0.07051385 100.4899 42.5794 57.5496
318 1 1 0.07051385 100.5539 42.6213 59.3157
319 1 8 -0.16948615 101.8117 44.8301 58.3402
320 1 1 0.07051385 99.8962 45.0292 59.2917
321 1 1 0.07051385 99.8288 44.9966 57.5269
322 1 1 0.07051385 102.3233 44.4180 59.2164
323 1 1 0.07051385 101.9985 45.9079 58.3138
324 1 1 0.07051385 102.2577 44.3852 57.4446
325 1 2 0.08531385 95.6424 41.1524 58.7028
326 1 6 -0.13908615 95.4140 42.7869 58.8626
327 1 3 -0.10448615 94.4452 40.4581 58.6695
328 1 4 0.00000000 93.3057 41.2994 58.7137
329 1 5 0.12551385 94.3723 39.3791 58.6198
330 1 2 0.08531385 93.7449 42.6197 58.7170
331 1 7 -0.10948615 91.8748 40.8048 58.7213
332 1 7 -0.10948615 91.6370 39.2953 58.7830
333 1 1 0.07051385 91.3760 41.1799 57.8190
334 1 1 0.07051385 91.3784 41.2325 59.6016
335 1 7 -0.10948615 90.1293 39.0117 58.8174
336 1 1 0.07051385 92.1109 38.8739 59.6776
337 1 1 0.07051385 92.0838 38.8051 57.9102
338 1 8 -0.16948615 89.8246 37.5261 58.8888
339 1 1 0.07051385 89.6526 39.4315 57.9233
340 1 1 0.07051385 89.6765 39.5095 59.6837
341 1 1 0.07051385 90.2332 36.9997 58.0211
342 1 1 0.07051385 88.7416 37.3652 58.9049
343 1 1 0.07051385 90.2465 37.0826 59.7958
344 1 2 0.08531385 104.1760 34.1278 58.3231
345 1 3 -0.10448615 104.7757 35.3537 58.4716
346 1 4 0.00000000 103.8315 36.4092 58.3742
347 1 5 0.12551385 105.8217 35.4687 58.7314
348 1 6 -0.13908615 102.6636 34.2435 57.6370
349 1 2 0.08531385 102.5689 35.8210 58.2770
350 1 7 -0.10948615 104.1904 37.8673 58.5433
351 1 7 -0.10948615 105.6905 38.1741 58.4360
352 1 1 0.07051385 103.8445 38.2186 59.5218
353 1 1 0.07051385 103.6668 38.4378 57.7660
354 1 7 -0.10948615 105.9640 39.6773 58.4215
355 1 1 0.07051385 106.1036 37.7244 57.5244
356 1 1 0.07051385 106.2179 37.7232 59.2865
357 1 8 -0.16948615 107.4567 39.9605 58.3492
358 1 1 0.07051385 105.5501 40.1432 59.3230
359 1 1 0.07051385 105.4680 40.1366 57.5588
360 1 1 0.07051385 107.9762 39.5477 59.2201
361 1 1 0.07051385 107.6386 41.0392 58.3244
362 1 1 0.07051385 107.8964 39.5202 57.4483
363 1 2 0.08531385 101.2729 36.2904 58.5905
364 1 6 -0.13908615 101.0511 37.8584 59.1180
365 1 3 -0.10448615 100.0934 35.5706 58.6571
366 1 4 0.00000000 98.9523 36.4048 58.8002
367 1 5 0.12551385 100.0328 34.4977 58.5249
368 1 2 0.08531385 99.3875 37.7269 58.8599
369 1 7 -0.10948615 97.5212 35.9204 58.7763
370 1 7 -0.10948615 97.2715 34.4143 58.8169
371 1 1 0.07051385 97.0433 36.3084 57.8678
372 1 1 0.07051385 97.0109 36.3441 59.6501
373 1 7 -0.10948615 95.7600 34.1509 58.8307
374 1 1 0.07051385 97.7332 33.9785 59.7107
375 1 1 0.07051385 97.7213 33.9304 57.9422
376 1 8 -0.16948615 95.4350 32.6699 58.8901
377 1 1 0.07051385 95.3002 34.5825 57.9332
378 1 1 0.07051385 95.3029 34.6504 59.6938
379 1 1 0.07051385 95.8433 32.1441 58.0219
380 1 1 0.07051385 94.3498 32.5241 58.8969
381 1 1 0.07051385 95.8443 32.2157 59.7975
382 1 10 -0.00848615 109.4134 29.8632 58.5475
383 1 3 -0.10448615 110.0172 31.0489 58.2097
384 1 4 0.00000000 108.9963 32.0252 58.2106
385 1 5 0.12551385 111.0680 31.1704 57.9841
386 1 11 -0.31948615 108.1234 30.0205 58.7711
387 1 10 -0.00848615 107.8572 31.3089 58.5588
388 1 7 -0.10948615 109.1538 33.4823 57.8875
389 1 7 -0.10948615 110.6039 33.8641 57.5396
390 1 1 0.07051385 108.8215 34.0739 58.7489
391 1 1 0.07051385 108.5026 33.7343 57.0421
392 1 7 -0.10948615 110.7836 35.3482 57.2334
393 1 1 0.07051385 110.9380 33.2808 56.6709
394 1 1 0.07051385 111.2648 33.5955 58.3745
395 1 8 -0.16948615 112.2381 35.6567 56.8990
396 1 1 0.07051385 110.4770 35.9479 58.0973
397 1 1 0.07051385 110.1493 35.6362 56.3880
398 1 1 0.07051385 112.8975 35.3972 57.7342
399 1 1 0.07051385 112.3647 36.7223 56.6857
400 1 1 0.07051385 112.5676 35.0929 56.0197
401 1 10 -0.00848615 106.5210 31.6644 58.6897
402 1 11 -0.31948615 106.1239 32.9011 58.4495
403 1 10 -0.00848615 104.7910 32.9027 58.5708
404 1 3 -0.10448615 105.4578 30.8513 59.0211
405 1 4 0.00000000 104.3040 31.6606 58.9623
406 1 5 0.12551385 105.5267 29.7992 59.2624
407 1 7 -0.10948615 102.8901 31.2695 59.2629
408 1 7 -0.10948615 102.6859 29.8131 59.6938
409 1 1 0.07051385 102.2820 31.4412 58.3678
410 1 1 0.07051385 102.5088 31.9292 60.0529
411 1 7 -0.10948615 101.2042 29.5337 59.9562
412 1 1 0.07051385 103.2667 29.5993 60.5999
413 1 1 0.07051385 103.0515 29.1374 58.9102
414 1 8 -0.16948615 100.9553 28.0800 60.3217
415 1 1 0.07051385 101.4992 27.8033 61.2301
416 1 1 0.07051385 101.2702 27.4126 59.5132
417 1 1 0.07051385 99.8879 27.9146 60.5004
418 1 1 0.07051385 100.6164 29.7816 59.0645
419 1 1 0.07051385 100.8452 30.1760 60.7688
420 1 10 -0.00848615 114.4940 25.4532 58.5178
421 1 3 -0.10448615 115.1139 26.6361 58.1930
422 1 4 0.00000000 114.0987 27.6126 58.1708
423 1 5 0.12551385 116.1711 26.7558 58.0010
424 1 11 -0.31948615 113.1978 25.6073 58.6937
425 1 10 -0.00848615 112.9527 26.8968 58.4900
426 1 7 -0.10948615 114.2524 29.0736 57.8724
427 1 7 -0.10948615 115.6963 29.4701 57.5303
428 1 1 0.07051385 113.9165 29.6508 58.7426
429 1 1 0.07051385 113.5988 29.3361 57.0316
430 1 7 -0.10948615 115.8500 30.9587 57.2322
431 1 1 0.07051385 116.0383 28.8949 56.6598
432 1 1 0.07051385 116.3581 29.2061 58.3658
433 1 8 -0.16948615 117.2974 31.2927 56.8961
434 1 1 0.07051385 115.5347 31.5487 58.0999
435 1 1 0.07051385 115.2083 31.2409 56.3902
436 1 1 0.07051385 117.9621 31.0404 57.7292
437 1 1 0.07051385 117.4052 32.3610 56.6868
438 1 1 0.07051385 117.6333 30.7375 56.0139
439 1 10 -0.00848615 111.6327 27.2841 58.6333
440 1 11 -0.31948615 111.3004 28.5483 58.4553
441 1 10 -0.00848615 109.9900 28.6117 58.6681
442 1 3 -0.10448615 110.5420 26.5066 58.9578
443 1 4 0.00000000 109.4364 27.3791 58.9807
444 1 5 0.12551385 110.5636 25.4429 59.1513
445 1 7 -0.10948615 108.0018 27.0620 59.2706
446 1 7 -0.10948615 107.7357 25.5964 59.6291
447 1 1 0.07051385 107.4016 27.3285 58.3913
448 1 1 0.07051385 107.6619 27.6954 60.0996
449 1 7 -0.10948615 106.2522 25.3437 59.8978
450 1 1 0.07051385 108.3184 25.3200 60.5172
451 1 1 0.07051385 108.0704 24.9455 58.8113
452 1 8 -0.16948615 105.9957 23.8892 60.2610
453 1 1 0.07051385 106.5426 23.6090 61.1671
454 1 1 0.07051385 106.3079 23.2214 59.4516
455 1 1 0.07051385 104.9291 23.7258 60.4438
456 1 1 0.07051385 105.6637 25.6020 59.0098
457 1 1 0.07051385 105.9060 25.9857 60.7159
458 1 10 -0.00848615 119.5627 21.0685 58.5172
459 1 3 -0.10448615 120.1795 22.2540 58.1916
460 1 4 0.00000000 119.1609 23.2262 58.1745
461 1 5 0.12551385 121.2354 22.3771 57.9966
462 1 11 -0.31948615 118.2683 21.2168 58.6979
463 1 10 -0.00848615 118.0198 22.5036 58.4989
464 1 7 -0.10948615 119.3058 24.6886 57.8763
465 1 7 -0.10948615 120.7466 25.0941 57.5320
466 1 1 0.07051385 118.9678 25.2639 58.7469
467 1 1 0.07051385 118.6494 24.9479 57.0365
468 1 7 -0.10948615 120.8921 26.5840 57.2347
469 1 1 0.07051385 121.0903 24.5218 56.6603
470 1 1 0.07051385 121.4112 24.8331 58.3661
471 1 8 -0.16948615 122.3374 26.9259 56.8974
472 1 1 0.07051385 120.5746 27.1719 58.1031
473 1 1 0.07051385 120.2481 26.8637 56.3936
474 1 1 0.07051385 123.0043 26.6763 57.7295
475 1 1 0.07051385 122.4397 27.9950 56.6889
476 1 1 0.07051385 122.6753 26.3732 56.0143
477 1 10 -0.00848615 116.7012 22.8818 58.6476
478 1 11 -0.31948615 116.3726 24.1439 58.4689
479 1 10 -0.00848615 115.0628 24.2051 58.6658
480 1 3 -0.10448615 115.6097 22.1035 58.9713
481 1 4 0.00000000 114.5049 22.9768 58.9864
482 1 5 0.12551385 115.6302 21.0401 59.1650
483 1 7 -0.10948615 113.0677 22.6681 59.2712
484 1 7 -0.10948615 112.7906 21.2058 59.6328
485 1 1 0.07051385 112.4718 22.9357 58.3893
486 1 1 0.07051385 112.7285 23.3065 60.0969
487 1 7 -0.10948615 111.3042 20.9660 59.8990
488 1 1 0.07051385 113.3692 20.9272 60.5228
489 1 1 0.07051385 113.1220 20.5508 58.8171
490 1 8 -0.16948615 111.0345 19.5144 60.2639
491 1 1 0.07051385 111.5773 19.2309 61.1714
492 1 1 0.07051385 111.3425 18.8429 59.4560
493 1 1 0.07051385 109.9662 19.3605 60.4450
494 1 1 0.07051385 110.7194 21.2280 59.0097
495 1 1 0.07051385 110.9617 21.6121 60.7155
496 1 10 -0.00848615 124.6233 16.6927 58.5165
497 1 3 -0.10448615 125.2391 17.8802 58.1907
498 1 4 0.00000000 124.2189 18.8502 58.1744
499 1 5 0.12551385 126.2944 18.0048 57.9956
500 1 11 -0.31948615 123.3296 16.8390 58.6974
501 1 10 -0.00848615 123.0792 18.1241 58.4991
502 1 7 -0.10948615 124.3582 20.3135 57.8770
503 1 7 -0.10948615 125.7971 20.7245 57.5319
504 1 1 0.07051385 124.0187 20.8873 58.7481
505 1 1 0.07051385 123.7004 20.5713 57.0379
506 1 7 -0.10948615 125.9372 22.2152 57.2355
507 1 1 0.07051385 126.1420 20.1539 56.6596
508 1 1 0.07051385 126.4629 20.4653 58.3655
509 1 8 -0.16948615 127.3813 22.5617 56.8974
510 1 1 0.07051385 125.6184 22.8017 58.1043
511 1 1 0.07051385 125.2919 22.4934 56.3949
512 1 1 0.07051385 128.0494 22.3136 57.7291
513 1 1 0.07051385 127.4804 23.6312 56.6895
514 1 1 0.07051385 127.7202 22.0105 56.0139
515 1 10 -0.00848615 121.7623 18.4992 58.6479
516 1 11 -0.31948615 121.4362 19.7605 58.4679
517 1 10 -0.00848615 120.1285 19.8227 58.6644
518 1 3 -0.10448615 120.6695 17.7211 58.9721
519 1 4 0.00000000 119.5666 18.5956 58.9862
520 1 5 0.12551385 120.6888 16.6582 59.1666
521 1 7 -0.10948615 118.1278 18.2932 59.2705
522 1 7 -0.10948615 117.8435 16.8328 59.6330
523 1 1 0.07051385 117.5332 18.5628 58.3883
524 1 1 0.07051385 117.7906 18.9334 60.0957
525 1 7 -0.10948615 116.3555 16.6005 59.8981
526 1 1 0.07051385 118.4199 16.5526 60.5237
527 1 1 0.07051385 118.1725 16.1758 58.8180
528 1 8 -0.16948615 116.0789 15.1504 60.2637
529 1 1 0.07051385 116.6197 14.8653 61.1719
530 1 1 0.07051385 116.3848 14.4771 59.4565
531 1 1 0.07051385 115.0098 15.0013 60.4440
532 1 1 0.07051385 115.7726 16.8646 59.0080
533 1 1 0.07051385 116.0152 17.2488 60.7138
534 1 10 -0.00848615 129.6821 12.3187 58.5159
535 1 3 -0.10448615 130.2952 13.5070 58.1904
536 1 4 0.00000000 129.2733 14.4758 58.1746
537 1 5 0.12551385 131.3502 13.6343 57.9948
538 1 11 -0.31948615 128.3877 12.4628 58.6974
539 1 10 -0.00848615 128.1351 13.7474 58.4995
540 1 7 -0.10948615 129.4084 15.9400 57.8777
541 1 7 -0.10948615 130.8455 16.3556 57.5321
542 1 1 0.07051385 129.0676 16.5127 58.7491
543 1 1 0.07051385 128.7493 16.1967 57.0391
544 1 7 -0.10948615 130.9816 17.8470 57.2362
545 1 1 0.07051385 131.1914 15.7865 56.6592
546 1 1 0.07051385 131.5125 16.0979 58.3652
547 1 8 -0.16948615 132.4247 18.1970 56.8976
548 1 1 0.07051385 130.6618 18.4325 58.1054
549 1 1 0.07051385 130.3352 18.1241 56.3960
550 1 1 0.07051385 133.0937 17.9500 57.7289
551 1 1 0.07051385 132.5215 19.2668 56.6900
552 1 1 0.07051385 132.7645 17.6468 56.0137
553 1 10 -0.00848615 126.8182 14.1219 58.6485
554 1 11 -0.31948615 126.4941 15.3834 58.4681
555 1 10 -0.00848615 125.1871 15.4481 58.6639
556 1 3 -0.10448615 125.7238 13.3454 58.9727
557 1 4 0.00000000 124.6222 14.2215 58.9861
558 1 5 0.12551385 125.7411 12.2826 59.1675
559 1 7 -0.10948615 123.1821 13.9235 59.2699
560 1 7 -0.10948615 122.8928 12.4644 59.6329
561 1 1 0.07051385 122.5885 14.1945 58.3874
562 1 1 0.07051385 122.8460 14.5650 60.0946
563 1 7 -0.10948615 121.4039 12.2362 59.8973
564 1 1 0.07051385 123.4678 12.1830 60.5242
565 1 1 0.07051385 123.2204 11.8061 58.8184
566 1 8 -0.16948615 121.1235 10.7870 60.2635
567 1 1 0.07051385 121.6632 10.5009 61.1720
568 1 1 0.07051385 121.4281 10.1126 59.4567
569 1 1 0.07051385 120.0539 10.6404 60.4432
570 1 1 0.07051385 120.8220 12.5015 59.0070
571 1 1 0.07051385 121.0647 12.8858 60.7126
572 1 10 -0.00848615 134.7485 7.9390 58.5152
573 1 3 -0.10448615 135.3565 9.1289 58.1903
574 1 4 0.00000000 134.3315 10.0964 58.1753
575 1 5 0.12551385 136.4111 9.2607 57.9938
576 1 11 -0.31948615 133.4520 8.0813 58.6976
577 1 10 -0.00848615 133.1954 9.3662 58.5003
578 1 7 -0.10948615 134.4612 11.5622 57.8789
579 1 7 -0.10948615 135.8959 11.9842 57.5324
580 1 1 0.07051385 134.1186 12.1333 58.7507
581 1 1 0.07051385 133.8003 11.8170 57.0410
582 1 7 -0.10948615 136.0261 13.4765 57.2373
583 1 1 0.07051385 136.2432 11.4171 56.6588
584 1 1 0.07051385 136.5644 11.7286 58.3648
585 1 8 -0.16948615 137.4679 13.8317 56.8980
586 1 1 0.07051385 135.7049 14.0605 58.1070
587 1 1 0.07051385 135.3783 13.7520 56.3977
588 1 1 0.07051385 138.1381 13.5864 57.7287
589 1 1 0.07051385 137.5611 14.9019 56.6910
590 1 1 0.07051385 137.8089 13.2831 56.0136
591 1 10 -0.00848615 131.8761 9.7421 58.6492
592 1 11 -0.31948615 131.5537 11.0052 58.4680
593 1 10 -0.00848615 130.2464 11.0725 58.6634
594 1 3 -0.10448615 130.7800 8.9690 58.9729
595 1 4 0.00000000 129.6793 9.8476 58.9858
596 1 5 0.12551385 130.7941 7.9061 59.1684
597 1 7 -0.10948615 128.2375 9.5535 59.2692
598 1 7 -0.10948615 127.9429 8.0959 59.6328
599 1 1 0.07051385 127.6449 9.8261 58.3863
600 1 1 0.07051385 127.9027 10.1966 60.0933
601 1 7 -0.10948615 126.4530 7.8722 59.8965
602 1 1 0.07051385 128.5163 7.8133 60.5246
603 1 1 0.07051385 128.2688 7.4363 58.8188
604 1 8 -0.16948615 126.1685 6.4238 60.2631
605 1 1 0.07051385 126.7070 6.1368 61.1719
606 1 1 0.07051385 126.4719 5.7484 59.4567
607 1 1 0.07051385 125.0985 6.2798 60.4424
608 1 1 0.07051385 125.8720 8.1386 59.0058
609 1 1 0.07051385 126.1149 8.5229 60.7113
610 1 10 -0.00848615 139.8351 3.5426 58.5145
611 1 3 -0.10448615 140.4339 4.7374 58.1902
612 1 4 0.00000000 139.4032 5.7023 58.1766
613 1 5 0.12551385 141.4874 4.8766 57.9923
614 1 11 -0.31948615 138.5343 3.6840 58.6983
615 1 10 -0.00848615 138.2689 4.9696 58.5018
616 1 7 -0.10948615 139.5234 7.1704 57.8812
617 1 7 -0.10948615 140.9535 7.6044 57.5331
618 1 1 0.07051385 139.1774 7.7386 58.7538
619 1 1 0.07051385 138.8593 7.4220 57.0447
620 1 7 -0.10948615 141.0716 9.0984 57.2397
621 1 1 0.07051385 141.3033 7.0412 56.6582
622 1 1 0.07051385 141.6249 7.3529 58.3643
623 1 8 -0.16948615 142.5103 9.4648 56.8988
624 1 1 0.07051385 140.7473 9.6794 58.1104
625 1 1 0.07051385 140.4206 9.3706 56.4014
626 1 1 0.07051385 143.1833 9.2231 57.7283
627 1 1 0.07051385 142.5957 10.5359 56.6930
628 1 1 0.07051385 142.8539 8.9197 56.0132
629 1 10 -0.00848615 136.9462 5.3505 58.6499
630 1 11 -0.31948615 136.6247 6.6168 58.4675
631 1 10 -0.00848615 135.3160 6.6899 58.6624
632 1 3 -0.10448615 135.8459 4.5838 58.9732
633 1 4 0.00000000 134.7465 5.4670 58.9849
634 1 5 0.12551385 135.8543 3.5209 59.1698
635 1 7 -0.10948615 133.3020 5.1793 59.2677
636 1 7 -0.10948615 132.9983 3.7241 59.6324
637 1 1 0.07051385 132.7111 5.4545 58.3844
638 1 1 0.07051385 132.9693 5.8248 60.0910
639 1 7 -0.10948615 131.5066 3.5085 59.8948
640 1 1 0.07051385 133.5691 3.4395 60.5252
641 1 1 0.07051385 133.3214 3.0622 58.8192
642 1 8 -0.16948615 131.2146 2.0617 60.2623
643 1 1 0.07051385 131.7509 1.7728 61.1719
644 1 1 0.07051385 131.5156 1.3842 59.4567
645 1 1 0.07051385 130.1438 1.9227 60.4406
646 1 1 0.07051385 130.9276 3.7770 59.0035
647 1 1 0.07051385 131.1708 4.1614 60.7088