LAMMPS data file

22 atoms
3 atom types
20 bonds
20 bond types
38 angles
1 angle types
48 dihedrals
1 dihedral types
6 impropers
2 improper types




0.0000 300.0000 xlo xhi
0.0000 300.0000 ylo yhi
0.0000 300.0000 zlo zhi

Masses

1 12.011
2 1.008
3 32.060

Pair Coeffs

1 0.000000 0.000000
2 0.000000 0.000000
3 0.000000 0.000000

Bond Coeffs

1 0.000000 1.398065
2 0.000000 1.760317
3 0.000000 1.421039
4 0.000000 1.100291
5 0.000000 1.406681
6 0.000000 1.503466
7 0.000000 1.758493
8 0.000000 1.107153
9 0.000000 1.110076
10 0.000000 1.110076
11 0.000000 1.397205
12 0.000000 1.757150
13 0.000000 1.421388
14 0.000000 1.100560
15 0.000000 1.406234
16 0.000000 1.503603
17 0.000000 1.761148
18 0.000000 1.107252
19 0.000000 1.110076
20 0.000000 1.110076

Angle Coeffs

1 0.000000 0.000000

Dihedral Coeffs

1

Improper Coeffs

1 3.500000 -1 2
2 0.000000 -1 2

Atoms

1 1 1 0.0000000000000000 151.1052685197654171 152.9887482856904342 148.0825861638741969 0 0 0
2 1 1 0.0000000000000000 151.0789866477941814 153.2919929825270913 149.4471146798547636 0 0 0
3 1 1 0.0000000000000000 150.5279918254022391 152.2789462120589121 150.2774710812736032 0 0 0
4 1 2 0.0000000000000000 151.4579042569624221 154.2455491042914559 149.8443469328906019 0 0 0
5 1 1 0.0000000000000000 150.1135199875546675 151.1554324001595546 149.5394452345875891 0 0 0
6 1 3 0.0000000000000000 150.4207228334042838 151.3877894320284838 147.8236559756598183 0 0 0
7 1 1 0.0000000000000000 150.4102104392737260 152.4114263771507751 151.7704501774979633 0 0 0
8 1 2 0.0000000000000000 150.8049577015836178 153.3865794053958496 152.1154717926821718 0 0 0
9 1 2 0.0000000000000000 150.9754435410874294 151.6167592356028138 152.3008129442822565 0 0 0
10 1 2 0.0000000000000000 149.3553283610840481 152.3405339935854101 152.1087783246666731 0 0 0
11 1 2 0.0000000000000000 151.4711575390820997 153.5837319508135010 147.2382903104908962 0 0 0
12 1 1 0.0000000000000000 149.5068966654521034 149.9214307038701008 150.0000321430446206 0 0 0
13 1 1 0.0000000000000000 149.1122107499149081 148.8318793487360381 149.2194673583277620 0 0 0
14 1 1 0.0000000000000000 148.5414557421088375 147.7454036312711594 149.9365112477218815 0 0 0
15 1 2 0.0000000000000000 149.2362834403905367 148.8191119373554443 148.1259977929452418 0 0 0
16 1 1 0.0000000000000000 148.4892428044932444 147.9952250037008241 151.3193911148748327 0 0 0
17 1 3 0.0000000000000000 149.1550467161278846 149.5834340485001519 151.6880891817243651 0 0 0
18 1 1 0.0000000000000000 148.0569001761889183 146.4855678548873641 149.2740596957171988 0 0 0
19 1 2 0.0000000000000000 148.2065423617007411 146.5295390693962361 148.1778476238593498 0 0 0
20 1 2 0.0000000000000000 146.9753872725528367 146.3139760874233843 149.4561445073688901 0 0 0
21 1 2 0.0000000000000000 148.5954146916582204 145.5898789039819121 149.6482429458551167 0 0 0
22 1 2 0.0000000000000000 148.1084022466994838 147.3575798374446890 152.1261407300011967 0 0 0

Bonds

1 1 1 2
2 2 1 6
3 3 2 3
4 4 2 4
5 5 3 5
6 6 3 7
7 7 5 6
8 8 7 8
9 9 7 9
10 10 7 10
11 11 12 13
12 12 12 17
13 13 13 14
14 14 13 15
15 15 14 16
16 16 14 18
17 17 16 17
18 18 18 19
19 19 18 20
20 20 18 21

Angles

1 1 1 2 3
2 1 1 2 4
3 1 1 6 5
4 1 2 1 6
5 1 2 1 11
6 1 2 3 5
7 1 2 3 7
8 1 3 2 4
9 1 3 5 6
10 1 3 5 12
11 1 3 7 8
12 1 3 7 9
13 1 3 7 10
14 1 5 3 7
15 1 5 12 13
16 1 5 12 17
17 1 6 1 11
18 1 6 5 12
19 1 8 7 9
20 1 8 7 10
21 1 9 7 10
22 1 12 13 14
23 1 12 13 15
24 1 12 17 16
25 1 13 12 17
26 1 13 14 16
27 1 13 14 18
28 1 14 13 15
29 1 14 16 17
30 1 14 16 22
31 1 14 18 19
32 1 14 18 20
33 1 14 18 21
34 1 16 14 18
35 1 17 16 22
36 1 19 18 20
37 1 19 18 21
38 1 20 18 21

Dihedrals

1 1 1 2 3 5
2 1 1 2 3 7
3 1 1 6 5 3
4 1 1 6 5 12
5 1 2 1 6 5
6 1 2 3 5 6
7 1 2 3 5 12
8 1 2 3 7 8
9 1 2 3 7 9
10 1 2 3 7 10
11 1 3 2 1 6
12 1 3 2 1 11
13 1 3 5 12 13
14 1 3 5 12 17
15 1 4 2 1 6
16 1 4 2 1 11
17 1 4 2 3 5
18 1 4 2 3 7
19 1 5 3 7 8
20 1 5 3 7 9
21 1 5 3 7 10
22 1 5 6 1 11
23 1 5 12 13 14
24 1 5 12 13 15
25 1 5 12 17 16
26 1 6 5 3 7
27 1 6 5 12 13
28 1 6 5 12 17
29 1 7 3 5 12
30 1 12 13 14 16
31 1 12 13 14 18
32 1 12 17 16 14
33 1 12 17 16 22
34 1 13 12 17 16
35 1 13 14 16 17
36 1 13 14 16 22
37 1 13 14 18 19
38 1 13 14 18 20
39 1 13 14 18 21
40 1 14 13 12 17
41 1 15 13 12 17
42 1 15 13 14 16
43 1 15 13 14 18
44 1 16 14 18 19
45 1 16 14 18 20
46 1 16 14 18 21
47 1 17 16 14 18
48 1 18 14 16 22

Impropers

1 1 2 3 1 4
2 1 3 5 2 7
3 1 13 14 12 15
4 1 14 16 13 18
5 2 5 6 3 12
6 2 12 13 17 5
