LAMMPS data file

22 atoms
3 atom types
20 bonds
20 bond types
38 angles
1 angle types
48 dihedrals
1 dihedral types
6 impropers
2 improper types




0.0000 300.0000 xlo xhi
0.0000 300.0000 ylo yhi
0.0000 300.0000 zlo zhi

Masses

1 12.011
2 1.008
3 32.060

Pair Coeffs

1 0.000000 0.000000
2 0.000000 0.000000
3 0.000000 0.000000

Bond Coeffs

1 0.000000 1.397205
2 0.000000 1.757150
3 0.000000 1.421388
4 0.000000 1.100560
5 0.000000 1.406234
6 0.000000 1.503603
7 0.000000 1.761148
8 0.000000 1.107252
9 0.000000 1.110076
10 0.000000 1.110076
11 0.000000 1.398065
12 0.000000 1.760317
13 0.000000 1.421039
14 0.000000 1.100291
15 0.000000 1.406681
16 0.000000 1.503466
17 0.000000 1.758493
18 0.000000 1.107153
19 0.000000 1.110076
20 0.000000 1.110076

Angle Coeffs

1 0.000000 0.000000

Dihedral Coeffs

1

Improper Coeffs

1 3.500000 -1 2
2 0.000000 -1 2

Atoms

1 1 1 0.0000000000000000 147.9713335537975638 146.1182979142714657 149.5095144305393831 0 0 0
2 1 1 0.0000000000000000 147.6047802246532399 146.9226105302466863 148.4274329256543297 0 0 0
3 1 1 0.0000000000000000 148.1264500646732074 148.2446395456257449 148.4484701166130378 0 0 0
4 1 2 0.0000000000000000 146.9569997302374986 146.5549657438882889 147.6172166138887576 0 0 0
5 1 1 0.0000000000000000 148.9247984149667445 148.4788532879772447 149.5821709018431136 0 0 0
6 1 3 0.0000000000000000 149.0033505625187331 147.0390668386826576 150.5933512140385631 0 0 0
7 1 1 0.0000000000000000 147.8448408351986814 149.2581169350924597 147.3740483364966565 0 0 0
8 1 2 0.0000000000000000 147.1905088711603184 148.8335139973326875 146.5881926347546198 0 0 0
9 1 2 0.0000000000000000 148.7766116229758495 149.6049939833031885 146.8803396303786428 0 0 0
10 1 2 0.0000000000000000 147.3375523605086244 150.1583974435997959 147.7795395130682721 0 0 0
11 1 2 0.0000000000000000 147.7101825485521260 145.0777208469583570 149.7320197365285708 0 0 0
12 1 1 0.0000000000000000 149.6391141680458929 149.6581109614430432 150.0000431669445788 0 0 0
13 1 1 0.0000000000000000 150.4219489377080663 149.8332128877660807 151.1450738183613396 0 0 0
14 1 1 0.0000000000000000 151.0040475029208551 151.1221045321136387 151.2838916714794095 0 0 0
15 1 2 0.0000000000000000 150.5734421611560663 149.0299212850194408 151.8815612241939732 0 0 0
16 1 1 0.0000000000000000 150.6653788969529160 151.9746895644606468 150.2175171227285659 0 0 0
17 1 3 0.0000000000000000 149.6268432248344311 151.1486584122997385 149.0636486929645343 0 0 0
18 1 1 0.0000000000000000 151.8781583641794271 151.5104618882571117 152.4438566696509270 0 0 0
19 1 2 0.0000000000000000 151.9967735292959787 150.6676939707949714 153.1519960799664091 0 0 0
20 1 2 0.0000000000000000 151.4545325712112742 152.3653027983348807 153.0113575027978925 0 0 0
21 1 2 0.0000000000000000 152.8936056609535115 151.8122324393479516 152.1120899050880837 0 0 0
22 1 2 0.0000000000000000 150.9589563958649308 153.0172255133889223 150.0461192825473233 0 0 0

Bonds

1 1 1 2
2 2 1 6
3 3 2 3
4 4 2 4
5 5 3 5
6 6 3 7
7 7 5 6
8 8 7 8
9 9 7 9
10 10 7 10
11 11 12 13
12 12 12 17
13 13 13 14
14 14 13 15
15 15 14 16
16 16 14 18
17 17 16 17
18 18 18 19
19 19 18 20
20 20 18 21

Angles

1 1 1 2 3
2 1 1 2 4
3 1 1 6 5
4 1 2 1 6
5 1 2 1 11
6 1 2 3 5
7 1 2 3 7
8 1 3 2 4
9 1 3 5 6
10 1 3 5 12
11 1 3 7 8
12 1 3 7 9
13 1 3 7 10
14 1 5 3 7
15 1 5 12 13
16 1 5 12 17
17 1 6 1 11
18 1 6 5 12
19 1 8 7 9
20 1 8 7 10
21 1 9 7 10
22 1 12 13 14
23 1 12 13 15
24 1 12 17 16
25 1 13 12 17
26 1 13 14 16
27 1 13 14 18
28 1 14 13 15
29 1 14 16 17
30 1 14 16 22
31 1 14 18 19
32 1 14 18 20
33 1 14 18 21
34 1 16 14 18
35 1 17 16 22
36 1 19 18 20
37 1 19 18 21
38 1 20 18 21

Dihedrals

1 1 1 2 3 5
2 1 1 2 3 7
3 1 1 6 5 3
4 1 1 6 5 12
5 1 2 1 6 5
6 1 2 3 5 6
7 1 2 3 5 12
8 1 2 3 7 8
9 1 2 3 7 9
10 1 2 3 7 10
11 1 3 2 1 6
12 1 3 2 1 11
13 1 3 5 12 13
14 1 3 5 12 17
15 1 4 2 1 6
16 1 4 2 1 11
17 1 4 2 3 5
18 1 4 2 3 7
19 1 5 3 7 8
20 1 5 3 7 9
21 1 5 3 7 10
22 1 5 6 1 11
23 1 5 12 13 14
24 1 5 12 13 15
25 1 5 12 17 16
26 1 6 5 3 7
27 1 6 5 12 13
28 1 6 5 12 17
29 1 7 3 5 12
30 1 12 13 14 16
31 1 12 13 14 18
32 1 12 17 16 14
33 1 12 17 16 22
34 1 13 12 17 16
35 1 13 14 16 17
36 1 13 14 16 22
37 1 13 14 18 19
38 1 13 14 18 20
39 1 13 14 18 21
40 1 14 13 12 17
41 1 15 13 12 17
42 1 15 13 14 16
43 1 15 13 14 18
44 1 16 14 18 19
45 1 16 14 18 20
46 1 16 14 18 21
47 1 17 16 14 18
48 1 18 14 16 22

Impropers

1 1 2 3 1 4
2 1 3 5 2 7
3 1 13 14 12 15
4 1 14 16 13 18
5 2 5 3 6 12
6 2 12 13 17 5
