You are running Q-Chem version: 5.4.0

#
# job setting
#
local host:  exp-5-14
current dir: /expanse/lustre/scratch/theleonzhang/temp_project/Improper_Bend_Test
input file:  Methylthiophene_Improper_Bend_Methyl_Phi_5.qcin
output file: 
nprocs     : 0
nthreads   : 1
#
# qchem installation setting
#
QC:          /cm/shared/apps/spack/cpu/opt/spack/linux-centos8-zen2/gcc-10.2.0/qchem-5.4-akfmr7b3t57bfs6qan3padb2wnb2i7cl
QCAUX:       /cm/shared/apps/spack/cpu/opt/spack/linux-centos8-zen2/gcc-10.2.0/qchem-5.4-akfmr7b3t57bfs6qan3padb2wnb2i7cl/qcaux
QCPROG:      /cm/shared/apps/spack/cpu/opt/spack/linux-centos8-zen2/gcc-10.2.0/qchem-5.4-akfmr7b3t57bfs6qan3padb2wnb2i7cl/exe/qcprog.exe_s
QCPROG_S:    /cm/shared/apps/spack/cpu/opt/spack/linux-centos8-zen2/gcc-10.2.0/qchem-5.4-akfmr7b3t57bfs6qan3padb2wnb2i7cl/exe/qcprog.exe_s
PARALLEL:    -DSERIAL
QCMPI:       mpich
#
# qchem directory setting
#
qcrun:       qchem48035
QCSCRATCH:   .
QCLOCALSCR:  
QCTMPDIR:    .
QCFILEPREF:  ./qchem48035
QCSAVEDIR:   
workdirs:    ./qchem48035
workdir0:    ./qchem48035
partmpdirs =  
#
# parallel setting
#
QCRSH:           ssh
QCMPI:           mpich
QCMPIRUN:        /cm/shared/apps/spack/cpu/opt/spack/linux-centos8-zen2/gcc-10.2.0/qchem-5.4-akfmr7b3t57bfs6qan3padb2wnb2i7cl/bin/mpi/mpirun_qchem
QCMACHINEFILE:   ./qchem48035/hostfile

#
# env setting
#
exported envs:   QC QCAUX QCSCRATCH QCRUNNAME QCFILEPREF QCPROG QCPROG_S GUIFILE

Running Job 1 of 1 Methylthiophene_Improper_Bend_Methyl_Phi_5.qcin
qchem Methylthiophene_Improper_Bend_Methyl_Phi_5.qcin_48035.0 ./qchem48035/ 0
/cm/shared/apps/spack/cpu/opt/spack/linux-centos8-zen2/gcc-10.2.0/qchem-5.4-akfmr7b3t57bfs6qan3padb2wnb2i7cl/exe/qcprog.exe_s Methylthiophene_Improper_Bend_Methyl_Phi_5.qcin_48035.0 ./qchem48035/
                  Welcome to Q-Chem
     A Quantum Leap Into The Future Of Chemistry


 Q-Chem 5.4, Q-Chem, Inc., Pleasanton, CA (2021)

 License issued to: University of California, San Diego (site)

 E. Epifanovsky,  A. T. B. Gilbert,  Xintian Feng,  Joonho Lee,  Yuezhi Mao,  
 N. Mardirossian,  P. Pokhilko,  A. White,  M. Wormit,  M. P. Coons,  
 A. L. Dempwolff,  Zhengting Gan,  D. Hait,  P. R. Horn,  L. D. Jacobson,  
 I. Kaliman,  J. Kussmann,  A. W. Lange,  Ka Un Lao,  D. S. Levine,  Jie Liu,  
 S. C. McKenzie,  A. F. Morrison,  K. Nanda,  F. Plasser,  D. R. Rehn,  
 M. L. Vidal,  Zhi-Qiang You,  Ying Zhu,  B. Alam,  B. Albrecht,  
 A. Aldossary,  E. Alguire,  J. H. Andersen,  D. Barton,  K. Begam,  A. Behn,  
 Y. A. Bernard,  E. J. Berquist,  H. Burton,  A. Carreras,  K. Carter-Fenk,  
 R. Chakraborty,  A. D. Chien,  K. D. Closser,  V. Cofer-Shabica,  
 S. Dasgupta,  Jia Deng,  M. de Wergifosse,  M. Diedenhofen,  Hainam Do,  
 S. Ehlert,  Po-Tung Fang,  S. Fatehi,  Qingguo Feng,  J. Gayvert,  
 Qinghui Ge,  G. Gidofalvi,  M. Goldey,  J. Gomes,  C. Gonzalez-Espinoza,  
 S. Gulania,  A. Gunina,  M. W. D. Hanson-Heine,  P. H. P. Harbach,  
 A. W. Hauser,  M. F. Herbst,  M. Hernandez Vera,  M. Hodecker,  
 Z. C. Holden,  S. Houck,  Xunkun Huang,  Kerwin Hui,  B. C. Huynh,  
 M. Ivanov,  Hyunjun Ji,  Hanjie Jiang,  B. Kaduk,  S. Kaehler,  
 K. Khistyaev,  Jaehoon Kim,  P. Klunzinger,  Z. Koczor-Benda,  
 Joong Hoon Koh,  D. Kosenkov,  L. Koulias,  T. Kowalczyk,  C. M. Krauter,  
 K. Kue,  A. Kunitsa,  T. Kus,  A. Landau,  K. V. Lawler,  D. Lefrancois,  
 S. Lehtola,  Rain Li,  Yi-Pei Li,  Jiashu Liang,  M. Liebenthal,  
 Hung-Hsuan Lin,  You-Sheng Lin,  Fenglai Liu,  Kuan-Yu Liu,  
 M. Loipersberger,  A. Luenser,  A. Manjanath,  P. Manohar,  E. Mansoor,  
 S. F. Manzer,  Shan-Ping Mao,  A. V. Marenich,  T. Markovich,  S. Mason,  
 S. A. Maurer,  P. F. McLaughlin,  M. F. S. J. Menger,  J.-M. Mewes,  
 S. A. Mewes,  P. Morgante,  J. W. Mullinax,  T. S. Nguyen-Beck,  
 K. J. Oosterbaan,  G. Paran,  Alexander C. Paul,  Suranjan K. Paul,  
 F. Pavosevic,  Zheng Pei,  S. Prager,  E. I. Proynov,  E. Ramos,  B. Rana,  
 A. E. Rask,  A. Rettig,  R. M. Richard,  F. Rob,  E. Rossomme,  T. Scheele,  
 M. Scheurer,  M. Schneider,  N. Sergueev,  S. M. Sharada,  W. Skomorowski,  
 D. W. Small,  C. J. Stein,  Yu-Chuan Su,  E. J. Sundstrom,  Zhen Tao,  
 J. Thirman,  T. Tsuchimochi,  N. M. Tubman,  S. P. Veccham,  O. Vydrov,  
 J. Wenzel,  J. Witte,  A. Yamada,  Kun Yao,  S. Yeganeh,  S. R. Yost,  
 A. Zech,  Igor Ying Zhang,  Xing Zhang,  Yu Zhang,  D. Zuev,  
 A. Aspuru-Guzik,  A. T. Bell,  N. A. Besley,  K. B. Bravaya,  B. R. Brooks,  
 D. Casanova,  Jeng-Da Chai,  S. Coriani,  C. J. Cramer,  
 A. E. DePrince, III,  R. A. DiStasio Jr.,  A. Dreuw,  B. D. Dunietz,  
 T. R. Furlani,  W. A. Goddard III,  S. Grimme,  S. Hammes-Schiffer,  
 T. Head-Gordon,  W. J. Hehre,  Chao-Ping Hsu,  T.-C. Jagau,  Yousung Jung,  
 A. Klamt,  Jing Kong,  D. S. Lambrecht,  WanZhen Liang,  N. J. Mayhall,  
 C. W. McCurdy,  J. B. Neaton,  C. Ochsenfeld,  J. A. Parkhill,  R. Peverati,  
 V. A. Rassolov,  Yihan Shao,  L. V. Slipchenko,  T. Stauch,  R. P. Steele,  
 J. E. Subotnik,  A. J. W. Thom,  A. Tkatchenko,  D. G. Truhlar,  
 T. Van Voorhis,  T. A. Wesolowski,  K. B. Whaley,  H. L. Woodcock III,  
 P. M. Zimmerman,  S. Faraji,  P. M. W. Gill,  M. Head-Gordon,  
 J. M. Herbert,  A. I. Krylov

 Contributors to earlier versions of Q-Chem not listed above: 
 R. D. Adamson,  B. Austin,  R. Baer,  J. Baker,  G. J. O. Beran,  
 K. Brandhorst,  S. T. Brown,  E. F. C. Byrd,  A. K. Chakraborty,  
 G. K. L. Chan,  Chun-Min Chang,  Yunqing Chen,  C.-L. Cheng,  
 Siu Hung Chien,  D. M. Chipman,  D. L. Crittenden,  H. Dachsel,  
 R. J. Doerksen,  A. D. Dutoi,  R. G. Edgar,  J. Fosso-Tande,  
 L. Fusti-Molnar,  D. Ghosh,  A. Ghysels,  A. Golubeva-Zadorozhnaya,  
 J. Gonthier,  M. S. Gordon,  S. R. Gwaltney,  G. Hawkins,  J. E. Herr,  
 A. Heyden,  S. Hirata,  E. G. Hohenstein,  G. Kedziora,  F. J. Keil,  
 C. Kelley,  Jihan Kim,  R. A. King,  R. Z. Khaliullin,  P. P. Korambath,  
 W. Kurlancheek,  A. Laurent,  A. M. Lee,  M. S. Lee,  S. V. Levchenko,  
 Ching Yeh Lin,  D. Liotard,  E. Livshits,  R. C. Lochan,  I. Lotan,  
 L. A. Martinez-Martinez,  P. E. Maslen,  N. Nair,  D. P. O'Neill,  
 D. Neuhauser,  E. Neuscamman,  C. M. Oana,  R. Olivares-Amaya,  R. Olson,  
 T. M. Perrine,  B. Peters,  P. A. Pieniazek,  A. Prociuk,  Y. M. Rhee,  
 J. Ritchie,  M. A. Rohrdanz,  E. Rosta,  N. J. Russ,  H. F. Schaefer III,  
 M. W. Schmidt,  N. E. Schultz,  S. Sharma,  N. Shenvi,  C. D. Sherrill,  
 A. C. Simmonett,  A. Sodt,  T. Stein,  D. Stuck,  K. S. Thanthiriwatte,  
 V. Vanovschi,  L. Vogt,  Tao Wang,  A. Warshel,  M. A. Watson,  
 C. F. Williams,  Q. Wu,  X. Xu,  Jun Yang,  W. Zhang,  Yan Zhao

 Please cite Q-Chem as follows:
 Y. Shao et al., Mol. Phys. 113, 184-215 (2015)
 DOI: 10.1080/00268976.2014.952696

 Q-Chem 5.4.0 for Intel X86 EM64T Linux

 Parts of Q-Chem use Armadillo 9.800.1 (Horizon Scraper).
 http://arma.sourceforge.net/

 Q-Chem begins on Thu Jul  7 11:31:19 2022  

 Host: 
0

     Scratch files written to ./qchem48035//
 May1621 |scratch|qcdevops|jenkins|workspace|build_RNUM    
 Processing $rem in /cm/shared/apps/spack/cpu/opt/spack/linux-centos8-zen2/gcc-10.2.0/qchem-5.4-akfmr7b3t57bfs6qan3padb2wnb2i7cl/config/preferences:
 Processing $rem in /home/theleonzhang/.qchemrc:
 Symmetry turned off for PCM/SM12/SMD calculation
 Core orbitals will be frozen

 Checking the input file for inconsistencies... 	...done.

--------------------------------------------------------------
User input:
--------------------------------------------------------------
$molecule
0 1
C	0.008878	0.577055	-0.001077
C	0.008831	-0.267291	-1.114298
C	0.009137	-1.658339	-0.822186
H	0.008775	0.121051	-2.144066
C	0.009374	-1.906819	0.561921
S	0.008674	-0.393907	1.463440
C	0.009379	-2.722698	-1.884241
H	0.009202	-2.274507	-2.896729
H	-0.882859	-3.378969	-1.810154
H	0.901996	-3.378465	-1.810248
C	-0.117510	2.021672	-0.001077
H	-1.155672	2.319360	-0.001077
H	0.350973	2.451175	-0.874262
H	0.350973	2.451175	0.872108
H	0.009516	-2.864978	1.095219
$end

$rem
JOBTYPE		SP
EXCHANGE	HF
CORRELATION	pRIMP2
BASIS		cc-pvtz
METHOD		rimp2
AUX_BASIS	rimp2-cc-pvtz
SOLVENT_METHOD	PCM
PURECART	11111
SYMMETRY	false
MEM_TOTAL	110000
SCF_CONVERGENCE = 6
THRESH=10
$end



$solvent
dielectric 4.90
$end
--------------------------------------------------------------
 ----------------------------------------------------------------
             Standard Nuclear Orientation (Angstroms)
    I     Atom           X                Y                Z
 ----------------------------------------------------------------
    1      C       0.0088780000     0.5770550000    -0.0010770000
    2      C       0.0088310000    -0.2672910000    -1.1142980000
    3      C       0.0091370000    -1.6583390000    -0.8221860000
    4      H       0.0087750000     0.1210510000    -2.1440660000
    5      C       0.0093740000    -1.9068190000     0.5619210000
    6      S       0.0086740000    -0.3939070000     1.4634400000
    7      C       0.0093790000    -2.7226980000    -1.8842410000
    8      H       0.0092020000    -2.2745070000    -2.8967290000
    9      H      -0.8828590000    -3.3789690000    -1.8101540000
   10      H       0.9019960000    -3.3784650000    -1.8102480000
   11      C      -0.1175100000     2.0216720000    -0.0010770000
   12      H      -1.1556720000     2.3193600000    -0.0010770000
   13      H       0.3509730000     2.4511750000    -0.8742620000
   14      H       0.3509730000     2.4511750000     0.8721080000
   15      H       0.0095160000    -2.8649780000     1.0952190000
 ----------------------------------------------------------------
 Nuclear Repulsion Energy =         344.03371287 hartrees
 There are       30 alpha and       30 beta electrons

 Q-Chem warning in module forms1/BasisType.C, line 2236:

 You are not using the predefined 5D/6D in this basis set.

 Requested basis set is cc-pVTZ
 There are 120 shells and 326 basis functions

 Total QAlloc Memory Limit 110000 MB
 Mega-Array Size       188 MB
 MEM_STATIC part       192 MB
 Discretize the solute cavity surface with Lebedev spheres
	Using 110 Lebedev grid points for each H atom
	Using 194 Lebedev grid points for other atoms
	Atomic van der Waals radii will be scaled by 1.20
 Remove points where switching function is < 1.0e-08
 Keep 1072 surface tesserae and discard 1166 interior tesserae
 Molecular Surface Area = 159.968 Angst**2

                       Distance Matrix (Angstroms)
             C (  1)   C (  2)   C (  3)   H (  4)   C (  5)   S (  6)
   C (  2)  1.397205
   C (  3)  2.381429  1.421388
   H (  4)  2.190968  1.100560  2.216663
   C (  5)  2.546880  2.344731  1.406234  3.381512
   S (  6)  1.757150  2.580846  2.612063  3.644075  1.761147
   C (  7)  3.799300  2.573293  1.503603  2.855594  2.578637  4.078019
   H (  8)  4.064014  2.684395  2.164115  2.511016  3.478139  4.748445
   H (  9)  4.440505  3.310871  2.175386  3.627209  2.930878  4.519053
   H ( 10)  4.440371  3.310815  2.175384  3.627105  2.930819  4.519142
   C ( 11)  1.450135  2.548446  3.772630  2.867178  3.970656  2.827676
   H ( 12)  2.095663  3.047309  4.225292  3.283428  4.419829  3.295805
   H ( 13)  2.095664  2.750406  4.124036  2.675627  4.601241  3.698177
   H ( 14)  2.095664  3.384217  4.458205  3.826733  4.382353  2.925976
   H ( 15)  3.612403  3.410270  2.265484  4.405603  1.096574  2.498355
             C (  7)   H (  8)   H (  9)   H ( 10)   C ( 11)   H ( 12)
   H (  8)  1.107252
   H (  9)  1.110076  1.787807
   H ( 10)  1.110077  1.787805  1.784855
   C ( 11)  5.106021  5.182471  5.746777  5.785670
   H ( 12)  5.506905  5.553859  5.984826  6.322366  1.079999
   H ( 13)  5.282585  5.151626  6.032314  5.929958  1.080001  1.746369
   H ( 14)  5.872232  6.054173  6.535094  6.440758  1.080001  1.746369
   H ( 15)  2.982855  4.035382  3.082485  3.082520  5.009725  5.425577
             H ( 13)   H ( 14)
   H ( 14)  1.746370
   H ( 15)  5.679519  5.331778
 
 Requested basis set is rimp2-cc-pVTZ
 There are 250 shells and 848 basis functions
 A cutoff of  1.0D-10 yielded   6176 shell pairs
 There are     45244 function pairs (     58165 Cartesian)
 Smallest overlap matrix eigenvalue = 9.56E-05

 Scale SEOQF with 1.000000e+00/1.000000e-01/1.000000e-01

 Standard Electronic Orientation quadrupole field applied
 Nucleus-field energy     =     0.0000000032 hartrees
 Guess from superposition of atomic densities
 Warning:  Energy on first SCF cycle will be non-variational
 SAD guess density has 60.000000 electrons

 -----------------------------------------------------------------------
  General SCF calculation program by
  Eric Jon Sundstrom, Paul Horn, Yuezhi Mao, Dmitri Zuev, Alec White,
  David Stuck, Shaama M.S., Shane Yost, Joonho Lee, David Small,
  Daniel Levine, Susi Lehtola, Hugh Burton, Evgeny Epifanovsky,
  Bang C. Huynh
 -----------------------------------------------------------------------
 Hartree-Fock
 A restricted SCF calculation will be
 performed using DIIS
 SCF converges when DIIS error is below 1.0e-06
 ---------------------------------------
  Cycle       Energy         DIIS error
 ---------------------------------------
    1    -632.0298350133      2.89e-02  
    2    -629.3939212773      1.92e-03  
    3    -629.4637020648      6.56e-04  
    4    -629.4708685507      3.40e-04  
    5    -629.4728710258      5.96e-05  
    6    -629.4729956319      2.40e-05  
    7    -629.4730261119      1.10e-05  
    8    -629.4730347903      4.69e-06  
    9    -629.4730360856      1.60e-06  
   10    -629.4730362257      5.80e-07  Convergence criterion met
 ---------------------------------------
 SCF time:   CPU 143.68s  wall 145.00s 

************** Final PCM Free Energy Summary **************
 G_electrostatic  =      -0.00506316 hartree =      -3.17717819 kcal/mol
 G_cavitation     =       0.00000000 hartree =       0.00000000 kcal/mol
 G_dispersion     =       0.00000000 hartree =       0.00000000 kcal/mol
 G_repulsion      =       0.00000000 hartree =       0.00000000 kcal/mol
 --------------------------------------------------
 Non-electrostatic Free Energy =       0.00000000 hartree =       0.00000000 kcal/mol
 Total                         =      -0.00506316 hartree =      -3.17717819 kcal/mol
 --------------------------------------------------
 SCF Energy (H0 + V/2)                       =    -629.47303623 
 Solute Internal Energy (H0)                 =    -629.46797307 
 Total Free Energy (H0 + V/2 + non-elec)     =    -629.47303623 hartree
                                             = -395000.29197076 kcal/mol
***********************************************************

 SCF   energy in the final basis set =     -629.4730362257
 Total energy in the final basis set =     -629.4730362257


 --------------------------------------------------------------
  Generalized many-body perturbation theory program
  by Joonho Lee, Fazle Rob, Xintian Feng, Evgeny Epifanovsky

 No regularization used 
 (reg. param. = 0.0000e+00)
  (P|Q)^-1/2 Time:  CPU 0.48 s  wall 0.48 s

 In RI-MP2 calculation: 
 # of frozen core orbitals: 11

 Components of the RIMP2 correlation energy:
        aaaa    correlation energy =        -0.1438062785 a.u.
        abab    correlation energy =        -0.8815357692 a.u.
        bbbb    correlation energy =        -0.1438062785 a.u.
        non-Brillouin singles      =        -0.0000000000 a.u.
        total same-spin energy     =        -0.2876125570 a.u.
        total opposite-spin energy =        -0.8815357692 a.u.

 Total  RIMP2   correlation energy =        -1.1691483262 a.u.
        RIMP2         total energy =      -630.6421845519 a.u.

 RI-MP2 Energy Time:  CPU 11.04 s  wall 11.07 s
 
 --------------------------------------------------------------
 
                    Orbital Energies (a.u.)
 --------------------------------------------------------------
 
 Alpha MOs
 -- Occupied --
-91.9783 -11.2698 -11.2543 -11.2468 -11.2275 -11.2268 -11.2204  -8.9780
 -6.6590  -6.6585  -6.6579  -1.1580  -1.0466  -0.9943  -0.9380  -0.8807
 -0.7397  -0.7171  -0.6399  -0.5897  -0.5838  -0.5649  -0.5634  -0.5441
 -0.5053  -0.4898  -0.4826  -0.4553  -0.3374  -0.3000
 -- Virtual --
  0.1089   0.1447   0.1517   0.1758   0.1875   0.1928   0.2097   0.2287
  0.2326   0.2451   0.2473   0.2632   0.2946   0.3169   0.3477   0.3695
  0.3882   0.3910   0.4009   0.4069   0.4443   0.4457   0.4666   0.4844
  0.4970   0.5031   0.5123   0.5325   0.5362   0.5611   0.5731   0.5954
  0.6002   0.6087   0.6163   0.6226   0.6378   0.6421   0.6453   0.6514
  0.6549   0.6646   0.6764   0.6898   0.7236   0.7570   0.7720   0.7860
  0.8104   0.8414   0.8469   0.8551   0.8729   0.8926   0.9119   0.9270
  0.9445   0.9603   1.0042   1.0196   1.0322   1.0544   1.0642   1.0734
  1.0823   1.0867   1.0982   1.1424   1.1552   1.1720   1.1899   1.2118
  1.2269   1.2404   1.2554   1.2655   1.2789   1.3070   1.3190   1.3280
  1.3415   1.3672   1.3976   1.4182   1.4254   1.4460   1.4641   1.4809
  1.4873   1.4962   1.5300   1.5370   1.5482   1.5582   1.5668   1.5795
  1.5957   1.6368   1.6516   1.6706   1.6896   1.6949   1.7142   1.7355
  1.7496   1.7779   1.7996   1.8273   1.8737   1.8984   1.9248   1.9477
  2.0074   2.0406   2.0960   2.1283   2.1712   2.1863   2.2169   2.2272
  2.2627   2.2861   2.3556   2.4140   2.4313   2.4938   2.5038   2.5280
  2.5608   2.5851   2.6146   2.6460   2.6593   2.6827   2.7065   2.7200
  2.7318   2.7542   2.7847   2.7900   2.8221   2.8490   2.8542   2.8951
  2.9053   2.9315   2.9542   2.9733   3.0310   3.0408   3.0451   3.0989
  3.1131   3.1289   3.1453   3.1543   3.1554   3.1716   3.1953   3.2031
  3.2294   3.2497   3.2611   3.2813   3.2947   3.3039   3.3138   3.3332
  3.3369   3.3440   3.3770   3.3857   3.4020   3.4129   3.4263   3.4377
  3.4530   3.4600   3.4838   3.4883   3.5102   3.5192   3.5296   3.5756
  3.5833   3.5902   3.5992   3.6214   3.6308   3.6423   3.6577   3.6722
  3.6866   3.7105   3.7244   3.7401   3.7489   3.7693   3.7807   3.7931
  3.8067   3.8144   3.8272   3.8723   3.8905   3.9165   3.9201   3.9621
  3.9966   4.0096   4.0275   4.0439   4.0681   4.1053   4.1192   4.1301
  4.1379   4.1553   4.1669   4.1828   4.2093   4.2246   4.2371   4.2622
  4.2776   4.2815   4.3002   4.3308   4.3378   4.3542   4.3825   4.3921
  4.4026   4.4093   4.4293   4.4507   4.4598   4.4720   4.4862   4.5502
  4.5708   4.6140   4.6442   4.6556   4.6953   4.7164   4.7408   4.7806
  4.7944   4.8103   4.8399   4.8499   4.8881   4.9229   5.0864   5.1125
  5.1176   5.1743   5.1839   5.2422   5.2569   5.2805   5.2993   5.3356
  5.3794   5.4082   5.4319   5.4566   5.4731   5.5004   5.5353   5.5702
  5.5809   5.5863   5.6229   5.6295   5.6837   5.7103   5.7241   5.7521
  5.8316   5.9519   6.0138   6.1331   6.2266   6.2364   6.2686   6.2891
  6.3349   6.4660   9.0355  11.3203  12.9274  13.8545  14.1886  14.8170
 --------------------------------------------------------------
 
          Ground-State Mulliken Net Atomic Charges

     Atom                 Charge (a.u.)
  ----------------------------------------
      1 C                     0.037461
      2 C                    -0.285402
      3 C                     0.040859
      4 H                     0.179095
      5 C                    -0.263986
      6 S                    -0.006475
      7 C                    -0.273658
      8 H                     0.101510
      9 H                     0.106970
     10 H                     0.106928
     11 C                    -0.282304
     12 H                     0.115839
     13 H                     0.117285
     14 H                     0.111807
     15 H                     0.194070
  ----------------------------------------
  Sum of atomic charges =     0.000000

 -----------------------------------------------------------------
                    Cartesian Multipole Moments
 -----------------------------------------------------------------
    Charge (ESU x 10^10)
                -0.0000
    Dipole Moment (Debye)
         X      -0.1490      Y       0.2556      Z      -1.4711
       Tot       1.5005
    Quadrupole Moments (Debye-Ang)
        XX     -53.7931     XY      -0.1633     YY     -42.6640
        XZ       0.0066     YZ       0.3256     ZZ     -48.5123
    Octopole Moments (Debye-Ang^2)
       XXX       0.5116    XXY      32.5774    XYY       0.4922
       YYY      76.4751    XXZ       2.6258    XYZ      -0.0014
       YYZ       5.1612    XZZ       1.0938    YZZ      25.7587
       ZZZ       0.6798
    Hexadecapole Moments (Debye-Ang^3)
      XXXX     -78.5925   XXXY       5.0360   XXYY    -158.3823
      XYYY       7.4241   YYYY    -818.1469   XXXZ       0.1526
      XXYZ     -30.9972   XYYZ       0.0613   YYYZ    -107.0065
      XXZZ    -103.1518   XYZZ       3.7920   YYZZ    -212.5947
      XZZZ       0.0408   YZZZ    -103.0090   ZZZZ    -491.6763
 -----------------------------------------------------------------
 Total job time:  181.78s(wall), 155.07s(cpu) 
 Thu Jul  7 11:34:20 2022

        *************************************************************
        *                                                           *
        *  Thank you very much for using Q-Chem.  Have a nice day.  *
        *                                                           *
        *************************************************************


remove work dirs ./qchem48035.0 -- ./qchem48035.-1
rm -rf ./qchem48035
