You are running Q-Chem version: 5.4.0

#
# job setting
#
local host:  exp-7-21
current dir: /expanse/lustre/scratch/theleonzhang/temp_project/Improper_Bend_Test
input file:  Methylthiophene_Improper_Bend_Methyl_Phi_10.qcin
output file: 
nprocs     : 0
nthreads   : 1
#
# qchem installation setting
#
QC:          /cm/shared/apps/spack/cpu/opt/spack/linux-centos8-zen2/gcc-10.2.0/qchem-5.4-akfmr7b3t57bfs6qan3padb2wnb2i7cl
QCAUX:       /cm/shared/apps/spack/cpu/opt/spack/linux-centos8-zen2/gcc-10.2.0/qchem-5.4-akfmr7b3t57bfs6qan3padb2wnb2i7cl/qcaux
QCPROG:      /cm/shared/apps/spack/cpu/opt/spack/linux-centos8-zen2/gcc-10.2.0/qchem-5.4-akfmr7b3t57bfs6qan3padb2wnb2i7cl/exe/qcprog.exe_s
QCPROG_S:    /cm/shared/apps/spack/cpu/opt/spack/linux-centos8-zen2/gcc-10.2.0/qchem-5.4-akfmr7b3t57bfs6qan3padb2wnb2i7cl/exe/qcprog.exe_s
PARALLEL:    -DSERIAL
QCMPI:       mpich
#
# qchem directory setting
#
qcrun:       qchem3158192
QCSCRATCH:   .
QCLOCALSCR:  
QCTMPDIR:    .
QCFILEPREF:  ./qchem3158192
QCSAVEDIR:   
workdirs:    ./qchem3158192
workdir0:    ./qchem3158192
partmpdirs =  
#
# parallel setting
#
QCRSH:           ssh
QCMPI:           mpich
QCMPIRUN:        /cm/shared/apps/spack/cpu/opt/spack/linux-centos8-zen2/gcc-10.2.0/qchem-5.4-akfmr7b3t57bfs6qan3padb2wnb2i7cl/bin/mpi/mpirun_qchem
QCMACHINEFILE:   ./qchem3158192/hostfile

#
# env setting
#
exported envs:   QC QCAUX QCSCRATCH QCRUNNAME QCFILEPREF QCPROG QCPROG_S GUIFILE

Running Job 1 of 1 Methylthiophene_Improper_Bend_Methyl_Phi_10.qcin
qchem Methylthiophene_Improper_Bend_Methyl_Phi_10.qcin_3158192.0 ./qchem3158192/ 0
/cm/shared/apps/spack/cpu/opt/spack/linux-centos8-zen2/gcc-10.2.0/qchem-5.4-akfmr7b3t57bfs6qan3padb2wnb2i7cl/exe/qcprog.exe_s Methylthiophene_Improper_Bend_Methyl_Phi_10.qcin_3158192.0 ./qchem3158192/
                  Welcome to Q-Chem
     A Quantum Leap Into The Future Of Chemistry


 Q-Chem 5.4, Q-Chem, Inc., Pleasanton, CA (2021)

 License issued to: University of California, San Diego (site)

 E. Epifanovsky,  A. T. B. Gilbert,  Xintian Feng,  Joonho Lee,  Yuezhi Mao,  
 N. Mardirossian,  P. Pokhilko,  A. White,  M. Wormit,  M. P. Coons,  
 A. L. Dempwolff,  Zhengting Gan,  D. Hait,  P. R. Horn,  L. D. Jacobson,  
 I. Kaliman,  J. Kussmann,  A. W. Lange,  Ka Un Lao,  D. S. Levine,  Jie Liu,  
 S. C. McKenzie,  A. F. Morrison,  K. Nanda,  F. Plasser,  D. R. Rehn,  
 M. L. Vidal,  Zhi-Qiang You,  Ying Zhu,  B. Alam,  B. Albrecht,  
 A. Aldossary,  E. Alguire,  J. H. Andersen,  D. Barton,  K. Begam,  A. Behn,  
 Y. A. Bernard,  E. J. Berquist,  H. Burton,  A. Carreras,  K. Carter-Fenk,  
 R. Chakraborty,  A. D. Chien,  K. D. Closser,  V. Cofer-Shabica,  
 S. Dasgupta,  Jia Deng,  M. de Wergifosse,  M. Diedenhofen,  Hainam Do,  
 S. Ehlert,  Po-Tung Fang,  S. Fatehi,  Qingguo Feng,  J. Gayvert,  
 Qinghui Ge,  G. Gidofalvi,  M. Goldey,  J. Gomes,  C. Gonzalez-Espinoza,  
 S. Gulania,  A. Gunina,  M. W. D. Hanson-Heine,  P. H. P. Harbach,  
 A. W. Hauser,  M. F. Herbst,  M. Hernandez Vera,  M. Hodecker,  
 Z. C. Holden,  S. Houck,  Xunkun Huang,  Kerwin Hui,  B. C. Huynh,  
 M. Ivanov,  Hyunjun Ji,  Hanjie Jiang,  B. Kaduk,  S. Kaehler,  
 K. Khistyaev,  Jaehoon Kim,  P. Klunzinger,  Z. Koczor-Benda,  
 Joong Hoon Koh,  D. Kosenkov,  L. Koulias,  T. Kowalczyk,  C. M. Krauter,  
 K. Kue,  A. Kunitsa,  T. Kus,  A. Landau,  K. V. Lawler,  D. Lefrancois,  
 S. Lehtola,  Rain Li,  Yi-Pei Li,  Jiashu Liang,  M. Liebenthal,  
 Hung-Hsuan Lin,  You-Sheng Lin,  Fenglai Liu,  Kuan-Yu Liu,  
 M. Loipersberger,  A. Luenser,  A. Manjanath,  P. Manohar,  E. Mansoor,  
 S. F. Manzer,  Shan-Ping Mao,  A. V. Marenich,  T. Markovich,  S. Mason,  
 S. A. Maurer,  P. F. McLaughlin,  M. F. S. J. Menger,  J.-M. Mewes,  
 S. A. Mewes,  P. Morgante,  J. W. Mullinax,  T. S. Nguyen-Beck,  
 K. J. Oosterbaan,  G. Paran,  Alexander C. Paul,  Suranjan K. Paul,  
 F. Pavosevic,  Zheng Pei,  S. Prager,  E. I. Proynov,  E. Ramos,  B. Rana,  
 A. E. Rask,  A. Rettig,  R. M. Richard,  F. Rob,  E. Rossomme,  T. Scheele,  
 M. Scheurer,  M. Schneider,  N. Sergueev,  S. M. Sharada,  W. Skomorowski,  
 D. W. Small,  C. J. Stein,  Yu-Chuan Su,  E. J. Sundstrom,  Zhen Tao,  
 J. Thirman,  T. Tsuchimochi,  N. M. Tubman,  S. P. Veccham,  O. Vydrov,  
 J. Wenzel,  J. Witte,  A. Yamada,  Kun Yao,  S. Yeganeh,  S. R. Yost,  
 A. Zech,  Igor Ying Zhang,  Xing Zhang,  Yu Zhang,  D. Zuev,  
 A. Aspuru-Guzik,  A. T. Bell,  N. A. Besley,  K. B. Bravaya,  B. R. Brooks,  
 D. Casanova,  Jeng-Da Chai,  S. Coriani,  C. J. Cramer,  
 A. E. DePrince, III,  R. A. DiStasio Jr.,  A. Dreuw,  B. D. Dunietz,  
 T. R. Furlani,  W. A. Goddard III,  S. Grimme,  S. Hammes-Schiffer,  
 T. Head-Gordon,  W. J. Hehre,  Chao-Ping Hsu,  T.-C. Jagau,  Yousung Jung,  
 A. Klamt,  Jing Kong,  D. S. Lambrecht,  WanZhen Liang,  N. J. Mayhall,  
 C. W. McCurdy,  J. B. Neaton,  C. Ochsenfeld,  J. A. Parkhill,  R. Peverati,  
 V. A. Rassolov,  Yihan Shao,  L. V. Slipchenko,  T. Stauch,  R. P. Steele,  
 J. E. Subotnik,  A. J. W. Thom,  A. Tkatchenko,  D. G. Truhlar,  
 T. Van Voorhis,  T. A. Wesolowski,  K. B. Whaley,  H. L. Woodcock III,  
 P. M. Zimmerman,  S. Faraji,  P. M. W. Gill,  M. Head-Gordon,  
 J. M. Herbert,  A. I. Krylov

 Contributors to earlier versions of Q-Chem not listed above: 
 R. D. Adamson,  B. Austin,  R. Baer,  J. Baker,  G. J. O. Beran,  
 K. Brandhorst,  S. T. Brown,  E. F. C. Byrd,  A. K. Chakraborty,  
 G. K. L. Chan,  Chun-Min Chang,  Yunqing Chen,  C.-L. Cheng,  
 Siu Hung Chien,  D. M. Chipman,  D. L. Crittenden,  H. Dachsel,  
 R. J. Doerksen,  A. D. Dutoi,  R. G. Edgar,  J. Fosso-Tande,  
 L. Fusti-Molnar,  D. Ghosh,  A. Ghysels,  A. Golubeva-Zadorozhnaya,  
 J. Gonthier,  M. S. Gordon,  S. R. Gwaltney,  G. Hawkins,  J. E. Herr,  
 A. Heyden,  S. Hirata,  E. G. Hohenstein,  G. Kedziora,  F. J. Keil,  
 C. Kelley,  Jihan Kim,  R. A. King,  R. Z. Khaliullin,  P. P. Korambath,  
 W. Kurlancheek,  A. Laurent,  A. M. Lee,  M. S. Lee,  S. V. Levchenko,  
 Ching Yeh Lin,  D. Liotard,  E. Livshits,  R. C. Lochan,  I. Lotan,  
 L. A. Martinez-Martinez,  P. E. Maslen,  N. Nair,  D. P. O'Neill,  
 D. Neuhauser,  E. Neuscamman,  C. M. Oana,  R. Olivares-Amaya,  R. Olson,  
 T. M. Perrine,  B. Peters,  P. A. Pieniazek,  A. Prociuk,  Y. M. Rhee,  
 J. Ritchie,  M. A. Rohrdanz,  E. Rosta,  N. J. Russ,  H. F. Schaefer III,  
 M. W. Schmidt,  N. E. Schultz,  S. Sharma,  N. Shenvi,  C. D. Sherrill,  
 A. C. Simmonett,  A. Sodt,  T. Stein,  D. Stuck,  K. S. Thanthiriwatte,  
 V. Vanovschi,  L. Vogt,  Tao Wang,  A. Warshel,  M. A. Watson,  
 C. F. Williams,  Q. Wu,  X. Xu,  Jun Yang,  W. Zhang,  Yan Zhao

 Please cite Q-Chem as follows:
 Y. Shao et al., Mol. Phys. 113, 184-215 (2015)
 DOI: 10.1080/00268976.2014.952696

 Q-Chem 5.4.0 for Intel X86 EM64T Linux

 Parts of Q-Chem use Armadillo 9.800.1 (Horizon Scraper).
 http://arma.sourceforge.net/

 Q-Chem begins on Thu Jul  7 11:05:04 2022  

 Host: 
0

     Scratch files written to ./qchem3158192//
 May1621 |scratch|qcdevops|jenkins|workspace|build_RNUM    
 Processing $rem in /cm/shared/apps/spack/cpu/opt/spack/linux-centos8-zen2/gcc-10.2.0/qchem-5.4-akfmr7b3t57bfs6qan3padb2wnb2i7cl/config/preferences:
 Processing $rem in /home/theleonzhang/.qchemrc:
 Symmetry turned off for PCM/SM12/SMD calculation
 Core orbitals will be frozen

 Checking the input file for inconsistencies... 	...done.

--------------------------------------------------------------
User input:
--------------------------------------------------------------
$molecule
0 1
C	0.017733	0.578221	-0.001077
C	0.017686	-0.266125	-1.114298
C	0.017992	-1.657173	-0.822186
H	0.017630	0.122217	-2.144066
C	0.018229	-1.905653	0.561921
S	0.017529	-0.392741	1.463440
C	0.018234	-2.721532	-1.884241
H	0.018057	-2.273341	-2.896729
H	-0.874004	-3.377803	-1.810154
H	0.910851	-3.377299	-1.810248
C	-0.234080	2.006325	-0.001077
H	-1.294238	2.212399	-0.001077
H	0.195186	2.475025	-0.874262
H	0.195186	2.475025	0.872108
H	0.018371	-2.863812	1.095219
$end

$rem
JOBTYPE		SP
EXCHANGE	HF
CORRELATION	pRIMP2
BASIS		cc-pvtz
METHOD		rimp2
AUX_BASIS	rimp2-cc-pvtz
SOLVENT_METHOD	PCM
PURECART	11111
SYMMETRY	false
MEM_TOTAL	110000
SCF_CONVERGENCE = 6
THRESH=10
$end



$solvent
dielectric 4.90
$end
--------------------------------------------------------------
 ----------------------------------------------------------------
             Standard Nuclear Orientation (Angstroms)
    I     Atom           X                Y                Z
 ----------------------------------------------------------------
    1      C       0.0177330000     0.5782210000    -0.0010770000
    2      C       0.0176860000    -0.2661250000    -1.1142980000
    3      C       0.0179920000    -1.6571730000    -0.8221860000
    4      H       0.0176300000     0.1222170000    -2.1440660000
    5      C       0.0182290000    -1.9056530000     0.5619210000
    6      S       0.0175290000    -0.3927410000     1.4634400000
    7      C       0.0182340000    -2.7215320000    -1.8842410000
    8      H       0.0180570000    -2.2733410000    -2.8967290000
    9      H      -0.8740040000    -3.3778030000    -1.8101540000
   10      H       0.9108510000    -3.3772990000    -1.8102480000
   11      C      -0.2340800000     2.0063250000    -0.0010770000
   12      H      -1.2942380000     2.2123990000    -0.0010770000
   13      H       0.1951860000     2.4750250000    -0.8742620000
   14      H       0.1951860000     2.4750250000     0.8721080000
   15      H       0.0183710000    -2.8638120000     1.0952190000
 ----------------------------------------------------------------
 Nuclear Repulsion Energy =         344.16473103 hartrees
 There are       30 alpha and       30 beta electrons

 Q-Chem warning in module forms1/BasisType.C, line 2236:

 You are not using the predefined 5D/6D in this basis set.

 Requested basis set is cc-pVTZ
 There are 120 shells and 326 basis functions

 Total QAlloc Memory Limit 110000 MB
 Mega-Array Size       188 MB
 MEM_STATIC part       192 MB
 Discretize the solute cavity surface with Lebedev spheres
	Using 110 Lebedev grid points for each H atom
	Using 194 Lebedev grid points for other atoms
	Atomic van der Waals radii will be scaled by 1.20
 Remove points where switching function is < 1.0e-08
 Keep 1071 surface tesserae and discard 1167 interior tesserae
 Molecular Surface Area = 159.843 Angst**2

                       Distance Matrix (Angstroms)
             C (  1)   C (  2)   C (  3)   H (  4)   C (  5)   S (  6)
   C (  2)  1.397205
   C (  3)  2.381429  1.421388
   H (  4)  2.190968  1.100560  2.216663
   C (  5)  2.546880  2.344731  1.406234  3.381512
   S (  6)  1.757150  2.580846  2.612063  3.644075  1.761147
   C (  7)  3.799300  2.573293  1.503603  2.855594  2.578637  4.078019
   H (  8)  4.064014  2.684395  2.164115  2.511016  3.478139  4.748445
   H (  9)  4.440505  3.310871  2.175386  3.627209  2.930878  4.519053
   H ( 10)  4.440371  3.310815  2.175384  3.627105  2.930819  4.519142
   C ( 11)  1.450135  2.542966  3.762842  2.864546  3.960328  2.821991
   H ( 12)  2.095664  3.017199  4.167704  3.268373  4.358657  3.263786
   H ( 13)  2.095664  2.757359  4.136323  2.679484  4.613488  3.704119
   H ( 14)  2.095664  3.389870  4.469574  3.829430  4.395210  2.933482
   H ( 15)  3.612403  3.410270  2.265484  4.405603  1.096574  2.498355
             C (  7)   H (  8)   H (  9)   H ( 10)   C ( 11)   H ( 12)
   H (  8)  1.107252
   H (  9)  1.110076  1.787807
   H ( 10)  1.110077  1.787805  1.784855
   C ( 11)  5.095351  5.173385  5.715864  5.793736
   H ( 12)  5.441743  5.498071  5.890646  6.275368  1.080001
   H ( 13)  5.296751  5.164177  6.022845  5.969752  1.080000  1.746370
   H ( 14)  5.884979  6.064857  6.526354  6.477415  1.080000  1.746370
   H ( 15)  2.982855  4.035382  3.082485  3.082520  4.998383  5.356559
             H ( 13)   H ( 14)
   H ( 14)  1.746370
   H ( 15)  5.693268  5.346421
 
 Requested basis set is rimp2-cc-pVTZ
 There are 250 shells and 848 basis functions
 A cutoff of  1.0D-10 yielded   6180 shell pairs
 There are     45260 function pairs (     58182 Cartesian)
 Smallest overlap matrix eigenvalue = 1.00E-04

 Scale SEOQF with 1.000000e+00/1.000000e-01/1.000000e-01

 Standard Electronic Orientation quadrupole field applied
 Nucleus-field energy     =     0.0000000033 hartrees
 Guess from superposition of atomic densities
 Warning:  Energy on first SCF cycle will be non-variational
 SAD guess density has 60.000000 electrons

 -----------------------------------------------------------------------
  General SCF calculation program by
  Eric Jon Sundstrom, Paul Horn, Yuezhi Mao, Dmitri Zuev, Alec White,
  David Stuck, Shaama M.S., Shane Yost, Joonho Lee, David Small,
  Daniel Levine, Susi Lehtola, Hugh Burton, Evgeny Epifanovsky,
  Bang C. Huynh
 -----------------------------------------------------------------------
 Hartree-Fock
 A restricted SCF calculation will be
 performed using DIIS
 SCF converges when DIIS error is below 1.0e-06
 ---------------------------------------
  Cycle       Energy         DIIS error
 ---------------------------------------
    1    -632.0312520486      2.89e-02  
    2    -629.3927516785      1.92e-03  
    3    -629.4625070048      6.54e-04  
    4    -629.4696566595      3.39e-04  
    5    -629.4716445178      5.96e-05  
    6    -629.4717691310      2.40e-05  
    7    -629.4717996720      1.10e-05  
    8    -629.4718083899      4.69e-06  
    9    -629.4718096928      1.61e-06  
   10    -629.4718098339      5.75e-07  Convergence criterion met
 ---------------------------------------
 SCF time:   CPU 144.30s  wall 145.00s 

************** Final PCM Free Energy Summary **************
 G_electrostatic  =      -0.00503486 hartree =      -3.15942121 kcal/mol
 G_cavitation     =       0.00000000 hartree =       0.00000000 kcal/mol
 G_dispersion     =       0.00000000 hartree =       0.00000000 kcal/mol
 G_repulsion      =       0.00000000 hartree =       0.00000000 kcal/mol
 --------------------------------------------------
 Non-electrostatic Free Energy =       0.00000000 hartree =       0.00000000 kcal/mol
 Total                         =      -0.00503486 hartree =      -3.15942121 kcal/mol
 --------------------------------------------------
 SCF Energy (H0 + V/2)                       =    -629.47180983 
 Solute Internal Energy (H0)                 =    -629.46677498 
 Total Free Energy (H0 + V/2 + non-elec)     =    -629.47180983 hartree
                                             = -394999.52239827 kcal/mol
***********************************************************

 SCF   energy in the final basis set =     -629.4718098339
 Total energy in the final basis set =     -629.4718098339


 --------------------------------------------------------------
  Generalized many-body perturbation theory program
  by Joonho Lee, Fazle Rob, Xintian Feng, Evgeny Epifanovsky

 No regularization used 
 (reg. param. = 0.0000e+00)
  (P|Q)^-1/2 Time:  CPU 0.48 s  wall 0.49 s

 In RI-MP2 calculation: 
 # of frozen core orbitals: 11

 Components of the RIMP2 correlation energy:
        aaaa    correlation energy =        -0.1438657324 a.u.
        abab    correlation energy =        -0.8817708199 a.u.
        bbbb    correlation energy =        -0.1438657324 a.u.
        non-Brillouin singles      =        -0.0000000000 a.u.
        total same-spin energy     =        -0.2877314647 a.u.
        total opposite-spin energy =        -0.8817708199 a.u.

 Total  RIMP2   correlation energy =        -1.1695022846 a.u.
        RIMP2         total energy =      -630.6413121184 a.u.

 RI-MP2 Energy Time:  CPU 11.09 s  wall 11.14 s
 
 --------------------------------------------------------------
 
                    Orbital Energies (a.u.)
 --------------------------------------------------------------
 
 Alpha MOs
 -- Occupied --
-91.9782 -11.2692 -11.2549 -11.2469 -11.2279 -11.2269 -11.2203  -8.9779
 -6.6589  -6.6584  -6.6578  -1.1582  -1.0466  -0.9943  -0.9379  -0.8806
 -0.7398  -0.7173  -0.6398  -0.5897  -0.5837  -0.5650  -0.5634  -0.5441
 -0.5057  -0.4899  -0.4816  -0.4552  -0.3375  -0.3001
 -- Virtual --
  0.1074   0.1446   0.1519   0.1758   0.1868   0.1927   0.2105   0.2286
  0.2318   0.2451   0.2490   0.2632   0.2954   0.3168   0.3478   0.3700
  0.3856   0.3917   0.3999   0.4073   0.4430   0.4459   0.4662   0.4829
  0.4942   0.5047   0.5101   0.5338   0.5368   0.5630   0.5734   0.5957
  0.5977   0.6091   0.6162   0.6217   0.6370   0.6417   0.6449   0.6511
  0.6548   0.6657   0.6768   0.6886   0.7223   0.7553   0.7728   0.7850
  0.8085   0.8428   0.8437   0.8564   0.8710   0.8919   0.9103   0.9239
  0.9480   0.9612   1.0042   1.0213   1.0340   1.0620   1.0624   1.0753
  1.0818   1.0862   1.0966   1.1367   1.1530   1.1706   1.1883   1.2111
  1.2290   1.2399   1.2574   1.2633   1.2790   1.3009   1.3200   1.3356
  1.3412   1.3678   1.3963   1.4179   1.4217   1.4469   1.4602   1.4796
  1.4855   1.4974   1.5272   1.5358   1.5487   1.5556   1.5667   1.5806
  1.5914   1.6357   1.6484   1.6763   1.6859   1.6945   1.7135   1.7377
  1.7530   1.7736   1.8014   1.8295   1.8744   1.9023   1.9241   1.9529
  2.0069   2.0408   2.0956   2.1193   2.1562   2.1859   2.2152   2.2270
  2.2627   2.2861   2.3575   2.4178   2.4307   2.4911   2.5071   2.5333
  2.5590   2.5837   2.6198   2.6484   2.6580   2.6800   2.7019   2.7220
  2.7295   2.7559   2.7864   2.7925   2.8209   2.8451   2.8514   2.8809
  2.9049   2.9359   2.9647   2.9742   3.0314   3.0395   3.0486   3.1003
  3.1128   3.1285   3.1443   3.1536   3.1561   3.1680   3.1919   3.2031
  3.2357   3.2493   3.2643   3.2796   3.2942   3.3039   3.3073   3.3364
  3.3424   3.3455   3.3802   3.3834   3.3991   3.4132   3.4258   3.4371
  3.4561   3.4690   3.4846   3.4863   3.5052   3.5223   3.5296   3.5747
  3.5803   3.5928   3.5990   3.6201   3.6276   3.6404   3.6653   3.6783
  3.6872   3.7122   3.7243   3.7429   3.7496   3.7692   3.7798   3.7872
  3.8067   3.8140   3.8232   3.8713   3.8870   3.9224   3.9267   3.9592
  3.9941   4.0096   4.0254   4.0423   4.0572   4.1072   4.1185   4.1353
  4.1405   4.1492   4.1653   4.1813   4.2111   4.2272   4.2338   4.2678
  4.2763   4.2838   4.3016   4.3355   4.3391   4.3551   4.3805   4.3877
  4.4024   4.4123   4.4300   4.4479   4.4583   4.4717   4.4919   4.5460
  4.5697   4.6176   4.6416   4.6575   4.6971   4.7149   4.7445   4.7806
  4.7931   4.8091   4.8350   4.8505   4.8826   4.9169   5.0791   5.1107
  5.1213   5.1717   5.1829   5.2379   5.2579   5.2816   5.2993   5.3343
  5.3740   5.4056   5.4367   5.4568   5.4719   5.4995   5.5365   5.5695
  5.5839   5.5919   5.6200   5.6301   5.6809   5.7113   5.7249   5.7481
  5.8309   5.9530   6.0078   6.1296   6.2265   6.2329   6.2701   6.2886
  6.3333   6.4662   9.0271  11.3174  12.9172  13.8538  14.1889  14.8173
 --------------------------------------------------------------
 
          Ground-State Mulliken Net Atomic Charges

     Atom                 Charge (a.u.)
  ----------------------------------------
      1 C                     0.033005
      2 C                    -0.285926
      3 C                     0.043026
      4 H                     0.179067
      5 C                    -0.263488
      6 S                    -0.006137
      7 C                    -0.273064
      8 H                     0.101541
      9 H                     0.106916
     10 H                     0.106901
     11 C                    -0.281742
     12 H                     0.116848
     13 H                     0.116994
     14 H                     0.111977
     15 H                     0.194083
  ----------------------------------------
  Sum of atomic charges =     0.000000

 -----------------------------------------------------------------
                    Cartesian Multipole Moments
 -----------------------------------------------------------------
    Charge (ESU x 10^10)
                -0.0000
    Dipole Moment (Debye)
         X      -0.2816      Y       0.1995      Z      -1.4810
       Tot       1.5207
    Quadrupole Moments (Debye-Ang)
        XX     -53.7620     XY      -0.3513     YY     -42.7302
        XZ       0.0086     YZ       0.3083     ZZ     -48.5060
    Octopole Moments (Debye-Ang^2)
       XXX       1.7143    XXY      32.5349    XYY       0.8221
       YYY      76.3803    XXZ       2.6175    XYZ       0.0210
       YYZ       5.1707    XZZ       1.5533    YZZ      25.8387
       ZZZ       0.6361
    Hexadecapole Moments (Debye-Ang^3)
      XXXX     -80.1261   XXXY      11.5962   XXYY    -158.5454
      XYYY      14.0887   YYYY    -814.7628   XXXZ       0.2613
      XXYZ     -31.0035   XYYZ       0.1301   YYYZ    -107.1249
      XXZZ    -103.6601   XYZZ       5.8075   YYZZ    -211.8191
      XZZZ       0.0071   YZZZ    -103.0006   ZZZZ    -491.6138
 -----------------------------------------------------------------
 Total job time:  159.34s(wall), 155.74s(cpu) 
 Thu Jul  7 11:07:43 2022

        *************************************************************
        *                                                           *
        *  Thank you very much for using Q-Chem.  Have a nice day.  *
        *                                                           *
        *************************************************************


remove work dirs ./qchem3158192.0 -- ./qchem3158192.-1
rm -rf ./qchem3158192
