You are running Q-Chem version: 5.4.0

#
# job setting
#
local host:  exp-7-21
current dir: /expanse/lustre/scratch/theleonzhang/temp_project/Improper_Bend_Test
input file:  Methylthiophene_Improper_Bend_Methyl_Phi_60.qcin
output file: 
nprocs     : 0
nthreads   : 1
#
# qchem installation setting
#
QC:          /cm/shared/apps/spack/cpu/opt/spack/linux-centos8-zen2/gcc-10.2.0/qchem-5.4-akfmr7b3t57bfs6qan3padb2wnb2i7cl
QCAUX:       /cm/shared/apps/spack/cpu/opt/spack/linux-centos8-zen2/gcc-10.2.0/qchem-5.4-akfmr7b3t57bfs6qan3padb2wnb2i7cl/qcaux
QCPROG:      /cm/shared/apps/spack/cpu/opt/spack/linux-centos8-zen2/gcc-10.2.0/qchem-5.4-akfmr7b3t57bfs6qan3padb2wnb2i7cl/exe/qcprog.exe_s
QCPROG_S:    /cm/shared/apps/spack/cpu/opt/spack/linux-centos8-zen2/gcc-10.2.0/qchem-5.4-akfmr7b3t57bfs6qan3padb2wnb2i7cl/exe/qcprog.exe_s
PARALLEL:    -DSERIAL
QCMPI:       mpich
#
# qchem directory setting
#
qcrun:       qchem3162188
QCSCRATCH:   .
QCLOCALSCR:  
QCTMPDIR:    .
QCFILEPREF:  ./qchem3162188
QCSAVEDIR:   
workdirs:    ./qchem3162188
workdir0:    ./qchem3162188
partmpdirs =  
#
# parallel setting
#
QCRSH:           ssh
QCMPI:           mpich
QCMPIRUN:        /cm/shared/apps/spack/cpu/opt/spack/linux-centos8-zen2/gcc-10.2.0/qchem-5.4-akfmr7b3t57bfs6qan3padb2wnb2i7cl/bin/mpi/mpirun_qchem
QCMACHINEFILE:   ./qchem3162188/hostfile

#
# env setting
#
exported envs:   QC QCAUX QCSCRATCH QCRUNNAME QCFILEPREF QCPROG QCPROG_S GUIFILE

Running Job 1 of 1 Methylthiophene_Improper_Bend_Methyl_Phi_60.qcin
qchem Methylthiophene_Improper_Bend_Methyl_Phi_60.qcin_3162188.0 ./qchem3162188/ 0
/cm/shared/apps/spack/cpu/opt/spack/linux-centos8-zen2/gcc-10.2.0/qchem-5.4-akfmr7b3t57bfs6qan3padb2wnb2i7cl/exe/qcprog.exe_s Methylthiophene_Improper_Bend_Methyl_Phi_60.qcin_3162188.0 ./qchem3162188/
                  Welcome to Q-Chem
     A Quantum Leap Into The Future Of Chemistry


 Q-Chem 5.4, Q-Chem, Inc., Pleasanton, CA (2021)

 License issued to: University of California, San Diego (site)

 E. Epifanovsky,  A. T. B. Gilbert,  Xintian Feng,  Joonho Lee,  Yuezhi Mao,  
 N. Mardirossian,  P. Pokhilko,  A. White,  M. Wormit,  M. P. Coons,  
 A. L. Dempwolff,  Zhengting Gan,  D. Hait,  P. R. Horn,  L. D. Jacobson,  
 I. Kaliman,  J. Kussmann,  A. W. Lange,  Ka Un Lao,  D. S. Levine,  Jie Liu,  
 S. C. McKenzie,  A. F. Morrison,  K. Nanda,  F. Plasser,  D. R. Rehn,  
 M. L. Vidal,  Zhi-Qiang You,  Ying Zhu,  B. Alam,  B. Albrecht,  
 A. Aldossary,  E. Alguire,  J. H. Andersen,  D. Barton,  K. Begam,  A. Behn,  
 Y. A. Bernard,  E. J. Berquist,  H. Burton,  A. Carreras,  K. Carter-Fenk,  
 R. Chakraborty,  A. D. Chien,  K. D. Closser,  V. Cofer-Shabica,  
 S. Dasgupta,  Jia Deng,  M. de Wergifosse,  M. Diedenhofen,  Hainam Do,  
 S. Ehlert,  Po-Tung Fang,  S. Fatehi,  Qingguo Feng,  J. Gayvert,  
 Qinghui Ge,  G. Gidofalvi,  M. Goldey,  J. Gomes,  C. Gonzalez-Espinoza,  
 S. Gulania,  A. Gunina,  M. W. D. Hanson-Heine,  P. H. P. Harbach,  
 A. W. Hauser,  M. F. Herbst,  M. Hernandez Vera,  M. Hodecker,  
 Z. C. Holden,  S. Houck,  Xunkun Huang,  Kerwin Hui,  B. C. Huynh,  
 M. Ivanov,  Hyunjun Ji,  Hanjie Jiang,  B. Kaduk,  S. Kaehler,  
 K. Khistyaev,  Jaehoon Kim,  P. Klunzinger,  Z. Koczor-Benda,  
 Joong Hoon Koh,  D. Kosenkov,  L. Koulias,  T. Kowalczyk,  C. M. Krauter,  
 K. Kue,  A. Kunitsa,  T. Kus,  A. Landau,  K. V. Lawler,  D. Lefrancois,  
 S. Lehtola,  Rain Li,  Yi-Pei Li,  Jiashu Liang,  M. Liebenthal,  
 Hung-Hsuan Lin,  You-Sheng Lin,  Fenglai Liu,  Kuan-Yu Liu,  
 M. Loipersberger,  A. Luenser,  A. Manjanath,  P. Manohar,  E. Mansoor,  
 S. F. Manzer,  Shan-Ping Mao,  A. V. Marenich,  T. Markovich,  S. Mason,  
 S. A. Maurer,  P. F. McLaughlin,  M. F. S. J. Menger,  J.-M. Mewes,  
 S. A. Mewes,  P. Morgante,  J. W. Mullinax,  T. S. Nguyen-Beck,  
 K. J. Oosterbaan,  G. Paran,  Alexander C. Paul,  Suranjan K. Paul,  
 F. Pavosevic,  Zheng Pei,  S. Prager,  E. I. Proynov,  E. Ramos,  B. Rana,  
 A. E. Rask,  A. Rettig,  R. M. Richard,  F. Rob,  E. Rossomme,  T. Scheele,  
 M. Scheurer,  M. Schneider,  N. Sergueev,  S. M. Sharada,  W. Skomorowski,  
 D. W. Small,  C. J. Stein,  Yu-Chuan Su,  E. J. Sundstrom,  Zhen Tao,  
 J. Thirman,  T. Tsuchimochi,  N. M. Tubman,  S. P. Veccham,  O. Vydrov,  
 J. Wenzel,  J. Witte,  A. Yamada,  Kun Yao,  S. Yeganeh,  S. R. Yost,  
 A. Zech,  Igor Ying Zhang,  Xing Zhang,  Yu Zhang,  D. Zuev,  
 A. Aspuru-Guzik,  A. T. Bell,  N. A. Besley,  K. B. Bravaya,  B. R. Brooks,  
 D. Casanova,  Jeng-Da Chai,  S. Coriani,  C. J. Cramer,  
 A. E. DePrince, III,  R. A. DiStasio Jr.,  A. Dreuw,  B. D. Dunietz,  
 T. R. Furlani,  W. A. Goddard III,  S. Grimme,  S. Hammes-Schiffer,  
 T. Head-Gordon,  W. J. Hehre,  Chao-Ping Hsu,  T.-C. Jagau,  Yousung Jung,  
 A. Klamt,  Jing Kong,  D. S. Lambrecht,  WanZhen Liang,  N. J. Mayhall,  
 C. W. McCurdy,  J. B. Neaton,  C. Ochsenfeld,  J. A. Parkhill,  R. Peverati,  
 V. A. Rassolov,  Yihan Shao,  L. V. Slipchenko,  T. Stauch,  R. P. Steele,  
 J. E. Subotnik,  A. J. W. Thom,  A. Tkatchenko,  D. G. Truhlar,  
 T. Van Voorhis,  T. A. Wesolowski,  K. B. Whaley,  H. L. Woodcock III,  
 P. M. Zimmerman,  S. Faraji,  P. M. W. Gill,  M. Head-Gordon,  
 J. M. Herbert,  A. I. Krylov

 Contributors to earlier versions of Q-Chem not listed above: 
 R. D. Adamson,  B. Austin,  R. Baer,  J. Baker,  G. J. O. Beran,  
 K. Brandhorst,  S. T. Brown,  E. F. C. Byrd,  A. K. Chakraborty,  
 G. K. L. Chan,  Chun-Min Chang,  Yunqing Chen,  C.-L. Cheng,  
 Siu Hung Chien,  D. M. Chipman,  D. L. Crittenden,  H. Dachsel,  
 R. J. Doerksen,  A. D. Dutoi,  R. G. Edgar,  J. Fosso-Tande,  
 L. Fusti-Molnar,  D. Ghosh,  A. Ghysels,  A. Golubeva-Zadorozhnaya,  
 J. Gonthier,  M. S. Gordon,  S. R. Gwaltney,  G. Hawkins,  J. E. Herr,  
 A. Heyden,  S. Hirata,  E. G. Hohenstein,  G. Kedziora,  F. J. Keil,  
 C. Kelley,  Jihan Kim,  R. A. King,  R. Z. Khaliullin,  P. P. Korambath,  
 W. Kurlancheek,  A. Laurent,  A. M. Lee,  M. S. Lee,  S. V. Levchenko,  
 Ching Yeh Lin,  D. Liotard,  E. Livshits,  R. C. Lochan,  I. Lotan,  
 L. A. Martinez-Martinez,  P. E. Maslen,  N. Nair,  D. P. O'Neill,  
 D. Neuhauser,  E. Neuscamman,  C. M. Oana,  R. Olivares-Amaya,  R. Olson,  
 T. M. Perrine,  B. Peters,  P. A. Pieniazek,  A. Prociuk,  Y. M. Rhee,  
 J. Ritchie,  M. A. Rohrdanz,  E. Rosta,  N. J. Russ,  H. F. Schaefer III,  
 M. W. Schmidt,  N. E. Schultz,  S. Sharma,  N. Shenvi,  C. D. Sherrill,  
 A. C. Simmonett,  A. Sodt,  T. Stein,  D. Stuck,  K. S. Thanthiriwatte,  
 V. Vanovschi,  L. Vogt,  Tao Wang,  A. Warshel,  M. A. Watson,  
 C. F. Williams,  Q. Wu,  X. Xu,  Jun Yang,  W. Zhang,  Yan Zhao

 Please cite Q-Chem as follows:
 Y. Shao et al., Mol. Phys. 113, 184-215 (2015)
 DOI: 10.1080/00268976.2014.952696

 Q-Chem 5.4.0 for Intel X86 EM64T Linux

 Parts of Q-Chem use Armadillo 9.800.1 (Horizon Scraper).
 http://arma.sourceforge.net/

 Q-Chem begins on Thu Jul  7 11:18:44 2022  

 Host: 
0

     Scratch files written to ./qchem3162188//
 May1621 |scratch|qcdevops|jenkins|workspace|build_RNUM    
 Processing $rem in /cm/shared/apps/spack/cpu/opt/spack/linux-centos8-zen2/gcc-10.2.0/qchem-5.4-akfmr7b3t57bfs6qan3padb2wnb2i7cl/config/preferences:
 Processing $rem in /home/theleonzhang/.qchemrc:
 Symmetry turned off for PCM/SM12/SMD calculation
 Core orbitals will be frozen

 Checking the input file for inconsistencies... 	...done.

--------------------------------------------------------------
User input:
--------------------------------------------------------------
$molecule
0 1
C	0.088623	0.627858	-0.001077
C	0.088576	-0.216488	-1.114298
C	0.088882	-1.607536	-0.822186
H	0.088520	0.171854	-2.144066
C	0.089119	-1.856016	0.561921
S	0.088419	-0.343104	1.463440
C	0.089124	-2.671895	-1.884241
H	0.088947	-2.223704	-2.896729
H	-0.803114	-3.328166	-1.810154
H	0.981741	-3.327662	-1.810248
C	-1.167231	1.352926	-0.001077
H	-2.006549	0.673260	-0.001077
H	-1.250348	1.983037	-0.874262
H	-1.250348	1.983037	0.872108
H	0.089261	-2.814175	1.095219
$end

$rem
JOBTYPE		SP
EXCHANGE	HF
CORRELATION	pRIMP2
BASIS		cc-pvtz
METHOD		rimp2
AUX_BASIS	rimp2-cc-pvtz
SOLVENT_METHOD	PCM
PURECART	11111
SYMMETRY	false
MEM_TOTAL	110000
SCF_CONVERGENCE = 6
THRESH=10
$end



$solvent
dielectric 4.90
$end
--------------------------------------------------------------
 ----------------------------------------------------------------
             Standard Nuclear Orientation (Angstroms)
    I     Atom           X                Y                Z
 ----------------------------------------------------------------
    1      C       0.0886230000     0.6278580000    -0.0010770000
    2      C       0.0885760000    -0.2164880000    -1.1142980000
    3      C       0.0888820000    -1.6075360000    -0.8221860000
    4      H       0.0885200000     0.1718540000    -2.1440660000
    5      C       0.0891190000    -1.8560160000     0.5619210000
    6      S       0.0884190000    -0.3431040000     1.4634400000
    7      C       0.0891240000    -2.6718950000    -1.8842410000
    8      H       0.0889470000    -2.2237040000    -2.8967290000
    9      H      -0.8031140000    -3.3281660000    -1.8101540000
   10      H       0.9817410000    -3.3276620000    -1.8102480000
   11      C      -1.1672310000     1.3529260000    -0.0010770000
   12      H      -2.0065490000     0.6732600000    -0.0010770000
   13      H      -1.2503480000     1.9830370000    -0.8742620000
   14      H      -1.2503480000     1.9830370000     0.8721080000
   15      H       0.0892610000    -2.8141750000     1.0952190000
 ----------------------------------------------------------------
 Nuclear Repulsion Energy =         350.85056944 hartrees
 There are       30 alpha and       30 beta electrons

 Q-Chem warning in module forms1/BasisType.C, line 2236:

 You are not using the predefined 5D/6D in this basis set.

 Requested basis set is cc-pVTZ
 There are 120 shells and 326 basis functions

 Total QAlloc Memory Limit 110000 MB
 Mega-Array Size       188 MB
 MEM_STATIC part       192 MB
 Discretize the solute cavity surface with Lebedev spheres
	Using 110 Lebedev grid points for each H atom
	Using 194 Lebedev grid points for other atoms
	Atomic van der Waals radii will be scaled by 1.20
 Remove points where switching function is < 1.0e-08
 Keep 1050 surface tesserae and discard 1188 interior tesserae
 Molecular Surface Area = 156.831 Angst**2

                       Distance Matrix (Angstroms)
             C (  1)   C (  2)   C (  3)   H (  4)   C (  5)   S (  6)
   C (  2)  1.397205
   C (  3)  2.381429  1.421388
   H (  4)  2.190968  1.100560  2.216663
   C (  5)  2.546880  2.344731  1.406234  3.381512
   S (  6)  1.757150  2.580846  2.612063  3.644075  1.761147
   C (  7)  3.799300  2.573293  1.503603  2.855594  2.578637  4.078019
   H (  8)  4.064014  2.684395  2.164115  2.511016  3.478139  4.748445
   H (  9)  4.440505  3.310871  2.175386  3.627209  2.930878  4.519053
   H ( 10)  4.440371  3.310815  2.175384  3.627105  2.930819  4.519142
   C ( 11)  1.450135  2.297689  3.319093  2.750317  3.491803  2.568654
   H ( 12)  2.095664  2.533863  3.204229  3.038606  3.332571  2.750763
   H ( 13)  2.095663  2.586164  3.832553  2.585605  4.312206  3.559225
   H ( 14)  2.095663  3.252143  4.190034  3.764340  4.077832  2.748254
   H ( 15)  3.612403  3.410270  2.265484  4.405603  1.096574  2.498355
             C (  7)   H (  8)   H (  9)   H ( 10)   C ( 11)   H ( 12)
   H (  8)  1.107252
   H (  9)  1.110076  1.787807
   H ( 10)  1.110077  1.787805  1.784855
   C ( 11)  4.617783  4.770227  5.031696  5.458854
   H ( 12)  4.373581  4.600903  4.553287  5.311342  1.080000
   H ( 13)  4.947993  4.856002  5.411542  5.836250  1.080000  1.746370
   H ( 14)  5.573153  5.804698  5.966861  6.354587  1.080000  1.746370
   H ( 15)  2.982855  4.035382  3.082485  3.082520  4.488359  4.213845
             H ( 13)   H ( 14)
   H ( 14)  1.746370
   H ( 15)  5.355992  4.985737
 
 Requested basis set is rimp2-cc-pVTZ
 There are 250 shells and 848 basis functions
 A cutoff of  1.0D-10 yielded   6390 shell pairs
 There are     46976 function pairs (     60382 Cartesian)
 Smallest overlap matrix eigenvalue = 1.30E-04

 Scale SEOQF with 1.000000e-01/1.000000e-01/1.000000e-01

 Standard Electronic Orientation quadrupole field applied
 Nucleus-field energy     =     0.0000000007 hartrees
 Guess from superposition of atomic densities
 Warning:  Energy on first SCF cycle will be non-variational
 SAD guess density has 60.000000 electrons

 -----------------------------------------------------------------------
  General SCF calculation program by
  Eric Jon Sundstrom, Paul Horn, Yuezhi Mao, Dmitri Zuev, Alec White,
  David Stuck, Shaama M.S., Shane Yost, Joonho Lee, David Small,
  Daniel Levine, Susi Lehtola, Hugh Burton, Evgeny Epifanovsky,
  Bang C. Huynh
 -----------------------------------------------------------------------
 Hartree-Fock
 A restricted SCF calculation will be
 performed using DIIS
 SCF converges when DIIS error is below 1.0e-06
 ---------------------------------------
  Cycle       Energy         DIIS error
 ---------------------------------------
    1    -632.1420178161      2.94e-02  
    2    -629.3242387786      1.93e-03  
    3    -629.3946007096      6.89e-04  
    4    -629.4022979089      3.77e-04  
    5    -629.4047842420      6.36e-05  
    6    -629.4049514743      3.35e-05  
    7    -629.4050036907      1.43e-05  
    8    -629.4050233889      7.60e-06  
    9    -629.4050273894      2.55e-06  
   10    -629.4050278427      8.97e-07  Convergence criterion met
 ---------------------------------------
 SCF time:   CPU 152.78s  wall 153.00s 

************** Final PCM Free Energy Summary **************
 G_electrostatic  =      -0.00579047 hartree =      -3.63357761 kcal/mol
 G_cavitation     =       0.00000000 hartree =       0.00000000 kcal/mol
 G_dispersion     =       0.00000000 hartree =       0.00000000 kcal/mol
 G_repulsion      =       0.00000000 hartree =       0.00000000 kcal/mol
 --------------------------------------------------
 Non-electrostatic Free Energy =       0.00000000 hartree =       0.00000000 kcal/mol
 Total                         =      -0.00579047 hartree =      -3.63357761 kcal/mol
 --------------------------------------------------
 SCF Energy (H0 + V/2)                       =    -629.40502784 
 Solute Internal Energy (H0)                 =    -629.39923737 
 Total Free Energy (H0 + V/2 + non-elec)     =    -629.40502784 hartree
                                             = -394957.61606631 kcal/mol
***********************************************************

 SCF   energy in the final basis set =     -629.4050278427
 Total energy in the final basis set =     -629.4050278427


 --------------------------------------------------------------
  Generalized many-body perturbation theory program
  by Joonho Lee, Fazle Rob, Xintian Feng, Evgeny Epifanovsky

 No regularization used 
 (reg. param. = 0.0000e+00)
  (P|Q)^-1/2 Time:  CPU 0.48 s  wall 0.49 s

 In RI-MP2 calculation: 
 # of frozen core orbitals: 11

 Components of the RIMP2 correlation energy:
        aaaa    correlation energy =        -0.1462323612 a.u.
        abab    correlation energy =        -0.8901656127 a.u.
        bbbb    correlation energy =        -0.1462323612 a.u.
        non-Brillouin singles      =        -0.0000000000 a.u.
        total same-spin energy     =        -0.2924647225 a.u.
        total opposite-spin energy =        -0.8901656127 a.u.

 Total  RIMP2   correlation energy =        -1.1826303352 a.u.
        RIMP2         total energy =      -630.5876581779 a.u.

 RI-MP2 Energy Time:  CPU 11.32 s  wall 11.36 s
 
 --------------------------------------------------------------
 
                    Orbital Energies (a.u.)
 --------------------------------------------------------------
 
 Alpha MOs
 -- Occupied --
-91.9742 -11.2821 -11.2505 -11.2494 -11.2368 -11.2292 -11.2139  -8.9750
 -6.6559  -6.6551  -6.6548  -1.1718  -1.0510  -0.9962  -0.9337  -0.8774
 -0.7480  -0.7274  -0.6396  -0.5930  -0.5837  -0.5663  -0.5633  -0.5416
 -0.5151  -0.4891  -0.4596  -0.4390  -0.3365  -0.3035
 -- Virtual --
  0.0651   0.1416   0.1591   0.1750   0.1822   0.1926   0.2088   0.2246
  0.2319   0.2456   0.2484   0.2619   0.2920   0.3004   0.3452   0.3625
  0.3712   0.3888   0.4065   0.4150   0.4350   0.4479   0.4581   0.4731
  0.4759   0.4876   0.5096   0.5346   0.5517   0.5602   0.5615   0.5766
  0.5811   0.6040   0.6111   0.6251   0.6307   0.6355   0.6420   0.6456
  0.6632   0.6649   0.6826   0.6983   0.7191   0.7420   0.7655   0.7824
  0.7953   0.8189   0.8273   0.8550   0.8630   0.8729   0.8899   0.9524
  0.9543   0.9880   1.0134   1.0264   1.0449   1.0517   1.0725   1.0847
  1.1008   1.1187   1.1243   1.1486   1.1514   1.1828   1.2053   1.2136
  1.2270   1.2417   1.2556   1.2796   1.2847   1.3072   1.3224   1.3292
  1.3485   1.3853   1.4020   1.4086   1.4161   1.4418   1.4659   1.4679
  1.4813   1.4930   1.5141   1.5291   1.5360   1.5589   1.5606   1.5688
  1.5824   1.6213   1.6447   1.6641   1.6827   1.7001   1.7089   1.7433
  1.7561   1.7814   1.7946   1.8125   1.8471   1.9102   1.9234   1.9570
  1.9662   2.0330   2.0556   2.1112   2.1655   2.1834   2.1937   2.2436
  2.2483   2.2708   2.3428   2.3866   2.4096   2.4620   2.5089   2.5229
  2.5670   2.5869   2.6303   2.6485   2.6769   2.6806   2.7107   2.7402
  2.7658   2.7774   2.7896   2.8184   2.8353   2.8462   2.8809   2.9039
  2.9314   2.9528   2.9638   2.9821   3.0331   3.0370   3.0455   3.0693
  3.1082   3.1100   3.1281   3.1578   3.1640   3.1861   3.1890   3.2018
  3.2291   3.2347   3.2457   3.2570   3.2823   3.2962   3.3200   3.3285
  3.3322   3.3392   3.3647   3.3807   3.3946   3.4131   3.4269   3.4325
  3.4437   3.4635   3.5078   3.5159   3.5220   3.5286   3.5444   3.5745
  3.5770   3.5891   3.6105   3.6250   3.6488   3.6552   3.6674   3.7099
  3.7181   3.7328   3.7371   3.7456   3.7719   3.7931   3.7987   3.8144
  3.8323   3.8502   3.8572   3.8643   3.9073   3.9357   3.9568   4.0051
  4.0247   4.0361   4.0421   4.0619   4.0839   4.1092   4.1271   4.1338
  4.1646   4.1714   4.1966   4.2035   4.2138   4.2347   4.2526   4.2755
  4.2908   4.3044   4.3129   4.3319   4.3438   4.3684   4.3770   4.3988
  4.4176   4.4301   4.4629   4.4842   4.4959   4.5073   4.5214   4.5453
  4.6007   4.6308   4.6428   4.6684   4.6868   4.7231   4.7287   4.7463
  4.7894   4.8103   4.8387   4.8672   4.8875   4.9375   5.0157   5.0708
  5.1110   5.1526   5.1686   5.2488   5.2616   5.2684   5.2979   5.3060
  5.3733   5.4030   5.4050   5.4582   5.4858   5.5125   5.5484   5.5580
  5.6065   5.6199   5.6246   5.6496   5.6909   5.7209   5.7490   5.7756
  5.8121   5.9081   5.9601   6.0872   6.2032   6.2291   6.2499   6.2920
  6.3293   6.3499   9.0886  11.5949  12.7899  13.7282  14.1879  14.8686
 --------------------------------------------------------------
 
          Ground-State Mulliken Net Atomic Charges

     Atom                 Charge (a.u.)
  ----------------------------------------
      1 C                    -0.118158
      2 C                    -0.124877
      3 C                    -0.017917
      4 H                     0.184726
      5 C                    -0.186847
      6 S                     0.007564
      7 C                    -0.268029
      8 H                     0.102524
      9 H                     0.104630
     10 H                     0.106882
     11 C                    -0.286367
     12 H                     0.097159
     13 H                     0.099881
     14 H                     0.100418
     15 H                     0.198411
  ----------------------------------------
  Sum of atomic charges =     0.000000

 -----------------------------------------------------------------
                    Cartesian Multipole Moments
 -----------------------------------------------------------------
    Charge (ESU x 10^10)
                -0.0000
    Dipole Moment (Debye)
         X      -1.0322      Y      -2.1188      Z      -1.7954
       Tot       2.9628
    Quadrupole Moments (Debye-Ang)
        XX     -53.7522     XY      -1.1238     YY     -44.4924
        XZ      -0.0978     YZ      -0.2153     ZZ     -47.6749
    Octopole Moments (Debye-Ang^2)
       XXX      14.8104    XXY      32.0746    XYY       5.0894
       YYY      74.6371    XXZ       2.3062    XYZ       0.1124
       YYZ       6.7863    XZZ       5.3573    YZZ      28.5055
       ZZZ      -1.3051
    Hexadecapole Moments (Debye-Ang^3)
      XXXX    -151.6858   XXXY      51.6506   XXYY    -150.5961
      XYYY      48.5642   YYYY    -687.7541   XXXZ       0.7835
      XXYZ     -31.4151   XYYZ       0.7452   YYYZ    -110.3293
      XXZZ    -114.2980   XYZZ      15.4809   YYZZ    -190.3446
      XZZZ      -0.9474   YZZZ    -102.1255   ZZZZ    -487.0984
 -----------------------------------------------------------------
 Total job time:  168.82s(wall), 164.46s(cpu) 
 Thu Jul  7 11:21:33 2022

        *************************************************************
        *                                                           *
        *  Thank you very much for using Q-Chem.  Have a nice day.  *
        *                                                           *
        *************************************************************


remove work dirs ./qchem3162188.0 -- ./qchem3162188.-1
rm -rf ./qchem3162188
