You are running Q-Chem version: 5.4.0

#
# job setting
#
local host:  exp-7-21
current dir: /expanse/lustre/scratch/theleonzhang/temp_project/Improper_Bend_Test
input file:  Methylthiophene_Improper_Bend_Methyl_Phi_50.qcin
output file: 
nprocs     : 0
nthreads   : 1
#
# qchem installation setting
#
QC:          /cm/shared/apps/spack/cpu/opt/spack/linux-centos8-zen2/gcc-10.2.0/qchem-5.4-akfmr7b3t57bfs6qan3padb2wnb2i7cl
QCAUX:       /cm/shared/apps/spack/cpu/opt/spack/linux-centos8-zen2/gcc-10.2.0/qchem-5.4-akfmr7b3t57bfs6qan3padb2wnb2i7cl/qcaux
QCPROG:      /cm/shared/apps/spack/cpu/opt/spack/linux-centos8-zen2/gcc-10.2.0/qchem-5.4-akfmr7b3t57bfs6qan3padb2wnb2i7cl/exe/qcprog.exe_s
QCPROG_S:    /cm/shared/apps/spack/cpu/opt/spack/linux-centos8-zen2/gcc-10.2.0/qchem-5.4-akfmr7b3t57bfs6qan3padb2wnb2i7cl/exe/qcprog.exe_s
PARALLEL:    -DSERIAL
QCMPI:       mpich
#
# qchem directory setting
#
qcrun:       qchem3161717
QCSCRATCH:   .
QCLOCALSCR:  
QCTMPDIR:    .
QCFILEPREF:  ./qchem3161717
QCSAVEDIR:   
workdirs:    ./qchem3161717
workdir0:    ./qchem3161717
partmpdirs =  
#
# parallel setting
#
QCRSH:           ssh
QCMPI:           mpich
QCMPIRUN:        /cm/shared/apps/spack/cpu/opt/spack/linux-centos8-zen2/gcc-10.2.0/qchem-5.4-akfmr7b3t57bfs6qan3padb2wnb2i7cl/bin/mpi/mpirun_qchem
QCMACHINEFILE:   ./qchem3161717/hostfile

#
# env setting
#
exported envs:   QC QCAUX QCSCRATCH QCRUNNAME QCFILEPREF QCPROG QCPROG_S GUIFILE

Running Job 1 of 1 Methylthiophene_Improper_Bend_Methyl_Phi_50.qcin
qchem Methylthiophene_Improper_Bend_Methyl_Phi_50.qcin_3161717.0 ./qchem3161717/ 0
/cm/shared/apps/spack/cpu/opt/spack/linux-centos8-zen2/gcc-10.2.0/qchem-5.4-akfmr7b3t57bfs6qan3padb2wnb2i7cl/exe/qcprog.exe_s Methylthiophene_Improper_Bend_Methyl_Phi_50.qcin_3161717.0 ./qchem3161717/
                  Welcome to Q-Chem
     A Quantum Leap Into The Future Of Chemistry


 Q-Chem 5.4, Q-Chem, Inc., Pleasanton, CA (2021)

 License issued to: University of California, San Diego (site)

 E. Epifanovsky,  A. T. B. Gilbert,  Xintian Feng,  Joonho Lee,  Yuezhi Mao,  
 N. Mardirossian,  P. Pokhilko,  A. White,  M. Wormit,  M. P. Coons,  
 A. L. Dempwolff,  Zhengting Gan,  D. Hait,  P. R. Horn,  L. D. Jacobson,  
 I. Kaliman,  J. Kussmann,  A. W. Lange,  Ka Un Lao,  D. S. Levine,  Jie Liu,  
 S. C. McKenzie,  A. F. Morrison,  K. Nanda,  F. Plasser,  D. R. Rehn,  
 M. L. Vidal,  Zhi-Qiang You,  Ying Zhu,  B. Alam,  B. Albrecht,  
 A. Aldossary,  E. Alguire,  J. H. Andersen,  D. Barton,  K. Begam,  A. Behn,  
 Y. A. Bernard,  E. J. Berquist,  H. Burton,  A. Carreras,  K. Carter-Fenk,  
 R. Chakraborty,  A. D. Chien,  K. D. Closser,  V. Cofer-Shabica,  
 S. Dasgupta,  Jia Deng,  M. de Wergifosse,  M. Diedenhofen,  Hainam Do,  
 S. Ehlert,  Po-Tung Fang,  S. Fatehi,  Qingguo Feng,  J. Gayvert,  
 Qinghui Ge,  G. Gidofalvi,  M. Goldey,  J. Gomes,  C. Gonzalez-Espinoza,  
 S. Gulania,  A. Gunina,  M. W. D. Hanson-Heine,  P. H. P. Harbach,  
 A. W. Hauser,  M. F. Herbst,  M. Hernandez Vera,  M. Hodecker,  
 Z. C. Holden,  S. Houck,  Xunkun Huang,  Kerwin Hui,  B. C. Huynh,  
 M. Ivanov,  Hyunjun Ji,  Hanjie Jiang,  B. Kaduk,  S. Kaehler,  
 K. Khistyaev,  Jaehoon Kim,  P. Klunzinger,  Z. Koczor-Benda,  
 Joong Hoon Koh,  D. Kosenkov,  L. Koulias,  T. Kowalczyk,  C. M. Krauter,  
 K. Kue,  A. Kunitsa,  T. Kus,  A. Landau,  K. V. Lawler,  D. Lefrancois,  
 S. Lehtola,  Rain Li,  Yi-Pei Li,  Jiashu Liang,  M. Liebenthal,  
 Hung-Hsuan Lin,  You-Sheng Lin,  Fenglai Liu,  Kuan-Yu Liu,  
 M. Loipersberger,  A. Luenser,  A. Manjanath,  P. Manohar,  E. Mansoor,  
 S. F. Manzer,  Shan-Ping Mao,  A. V. Marenich,  T. Markovich,  S. Mason,  
 S. A. Maurer,  P. F. McLaughlin,  M. F. S. J. Menger,  J.-M. Mewes,  
 S. A. Mewes,  P. Morgante,  J. W. Mullinax,  T. S. Nguyen-Beck,  
 K. J. Oosterbaan,  G. Paran,  Alexander C. Paul,  Suranjan K. Paul,  
 F. Pavosevic,  Zheng Pei,  S. Prager,  E. I. Proynov,  E. Ramos,  B. Rana,  
 A. E. Rask,  A. Rettig,  R. M. Richard,  F. Rob,  E. Rossomme,  T. Scheele,  
 M. Scheurer,  M. Schneider,  N. Sergueev,  S. M. Sharada,  W. Skomorowski,  
 D. W. Small,  C. J. Stein,  Yu-Chuan Su,  E. J. Sundstrom,  Zhen Tao,  
 J. Thirman,  T. Tsuchimochi,  N. M. Tubman,  S. P. Veccham,  O. Vydrov,  
 J. Wenzel,  J. Witte,  A. Yamada,  Kun Yao,  S. Yeganeh,  S. R. Yost,  
 A. Zech,  Igor Ying Zhang,  Xing Zhang,  Yu Zhang,  D. Zuev,  
 A. Aspuru-Guzik,  A. T. Bell,  N. A. Besley,  K. B. Bravaya,  B. R. Brooks,  
 D. Casanova,  Jeng-Da Chai,  S. Coriani,  C. J. Cramer,  
 A. E. DePrince, III,  R. A. DiStasio Jr.,  A. Dreuw,  B. D. Dunietz,  
 T. R. Furlani,  W. A. Goddard III,  S. Grimme,  S. Hammes-Schiffer,  
 T. Head-Gordon,  W. J. Hehre,  Chao-Ping Hsu,  T.-C. Jagau,  Yousung Jung,  
 A. Klamt,  Jing Kong,  D. S. Lambrecht,  WanZhen Liang,  N. J. Mayhall,  
 C. W. McCurdy,  J. B. Neaton,  C. Ochsenfeld,  J. A. Parkhill,  R. Peverati,  
 V. A. Rassolov,  Yihan Shao,  L. V. Slipchenko,  T. Stauch,  R. P. Steele,  
 J. E. Subotnik,  A. J. W. Thom,  A. Tkatchenko,  D. G. Truhlar,  
 T. Van Voorhis,  T. A. Wesolowski,  K. B. Whaley,  H. L. Woodcock III,  
 P. M. Zimmerman,  S. Faraji,  P. M. W. Gill,  M. Head-Gordon,  
 J. M. Herbert,  A. I. Krylov

 Contributors to earlier versions of Q-Chem not listed above: 
 R. D. Adamson,  B. Austin,  R. Baer,  J. Baker,  G. J. O. Beran,  
 K. Brandhorst,  S. T. Brown,  E. F. C. Byrd,  A. K. Chakraborty,  
 G. K. L. Chan,  Chun-Min Chang,  Yunqing Chen,  C.-L. Cheng,  
 Siu Hung Chien,  D. M. Chipman,  D. L. Crittenden,  H. Dachsel,  
 R. J. Doerksen,  A. D. Dutoi,  R. G. Edgar,  J. Fosso-Tande,  
 L. Fusti-Molnar,  D. Ghosh,  A. Ghysels,  A. Golubeva-Zadorozhnaya,  
 J. Gonthier,  M. S. Gordon,  S. R. Gwaltney,  G. Hawkins,  J. E. Herr,  
 A. Heyden,  S. Hirata,  E. G. Hohenstein,  G. Kedziora,  F. J. Keil,  
 C. Kelley,  Jihan Kim,  R. A. King,  R. Z. Khaliullin,  P. P. Korambath,  
 W. Kurlancheek,  A. Laurent,  A. M. Lee,  M. S. Lee,  S. V. Levchenko,  
 Ching Yeh Lin,  D. Liotard,  E. Livshits,  R. C. Lochan,  I. Lotan,  
 L. A. Martinez-Martinez,  P. E. Maslen,  N. Nair,  D. P. O'Neill,  
 D. Neuhauser,  E. Neuscamman,  C. M. Oana,  R. Olivares-Amaya,  R. Olson,  
 T. M. Perrine,  B. Peters,  P. A. Pieniazek,  A. Prociuk,  Y. M. Rhee,  
 J. Ritchie,  M. A. Rohrdanz,  E. Rosta,  N. J. Russ,  H. F. Schaefer III,  
 M. W. Schmidt,  N. E. Schultz,  S. Sharma,  N. Shenvi,  C. D. Sherrill,  
 A. C. Simmonett,  A. Sodt,  T. Stein,  D. Stuck,  K. S. Thanthiriwatte,  
 V. Vanovschi,  L. Vogt,  Tao Wang,  A. Warshel,  M. A. Watson,  
 C. F. Williams,  Q. Wu,  X. Xu,  Jun Yang,  W. Zhang,  Yan Zhao

 Please cite Q-Chem as follows:
 Y. Shao et al., Mol. Phys. 113, 184-215 (2015)
 DOI: 10.1080/00268976.2014.952696

 Q-Chem 5.4.0 for Intel X86 EM64T Linux

 Parts of Q-Chem use Armadillo 9.800.1 (Horizon Scraper).
 http://arma.sourceforge.net/

 Q-Chem begins on Thu Jul  7 11:15:57 2022  

 Host: 
0

     Scratch files written to ./qchem3161717//
 May1621 |scratch|qcdevops|jenkins|workspace|build_RNUM    
 Processing $rem in /cm/shared/apps/spack/cpu/opt/spack/linux-centos8-zen2/gcc-10.2.0/qchem-5.4-akfmr7b3t57bfs6qan3padb2wnb2i7cl/config/preferences:
 Processing $rem in /home/theleonzhang/.qchemrc:
 Symmetry turned off for PCM/SM12/SMD calculation
 Core orbitals will be frozen

 Checking the input file for inconsistencies... 	...done.

--------------------------------------------------------------
User input:
--------------------------------------------------------------
$molecule
0 1
C	0.078386	0.613239	-0.001077
C	0.078339	-0.231107	-1.114298
C	0.078645	-1.622155	-0.822186
H	0.078283	0.157235	-2.144066
C	0.078882	-1.870635	0.561921
S	0.078182	-0.357723	1.463440
C	0.078887	-2.686514	-1.884241
H	0.078710	-2.238323	-2.896729
H	-0.813351	-3.342785	-1.810154
H	0.971504	-3.342281	-1.810248
C	-1.032482	1.545368	-0.001077
H	-1.977071	1.021774	-0.001077
H	-1.004919	2.180339	-0.874262
H	-1.004919	2.180339	0.872108
H	0.079024	-2.828794	1.095219
$end

$rem
JOBTYPE		SP
EXCHANGE	HF
CORRELATION	pRIMP2
BASIS		cc-pvtz
METHOD		rimp2
AUX_BASIS	rimp2-cc-pvtz
SOLVENT_METHOD	PCM
PURECART	11111
SYMMETRY	false
MEM_TOTAL	110000
SCF_CONVERGENCE = 6
THRESH=10
$end



$solvent
dielectric 4.90
$end
--------------------------------------------------------------
 ----------------------------------------------------------------
             Standard Nuclear Orientation (Angstroms)
    I     Atom           X                Y                Z
 ----------------------------------------------------------------
    1      C       0.0783860000     0.6132390000    -0.0010770000
    2      C       0.0783390000    -0.2311070000    -1.1142980000
    3      C       0.0786450000    -1.6221550000    -0.8221860000
    4      H       0.0782830000     0.1572350000    -2.1440660000
    5      C       0.0788820000    -1.8706350000     0.5619210000
    6      S       0.0781820000    -0.3577230000     1.4634400000
    7      C       0.0788870000    -2.6865140000    -1.8842410000
    8      H       0.0787100000    -2.2383230000    -2.8967290000
    9      H      -0.8133510000    -3.3427850000    -1.8101540000
   10      H       0.9715040000    -3.3422810000    -1.8102480000
   11      C      -1.0324820000     1.5453680000    -0.0010770000
   12      H      -1.9770710000     1.0217740000    -0.0010770000
   13      H      -1.0049190000     2.1803390000    -0.8742620000
   14      H      -1.0049190000     2.1803390000     0.8721080000
   15      H       0.0790240000    -2.8287940000     1.0952190000
 ----------------------------------------------------------------
 Nuclear Repulsion Energy =         348.64675725 hartrees
 There are       30 alpha and       30 beta electrons

 Q-Chem warning in module forms1/BasisType.C, line 2236:

 You are not using the predefined 5D/6D in this basis set.

 Requested basis set is cc-pVTZ
 There are 120 shells and 326 basis functions

 Total QAlloc Memory Limit 110000 MB
 Mega-Array Size       188 MB
 MEM_STATIC part       192 MB
 Discretize the solute cavity surface with Lebedev spheres
	Using 110 Lebedev grid points for each H atom
	Using 194 Lebedev grid points for other atoms
	Atomic van der Waals radii will be scaled by 1.20
 Remove points where switching function is < 1.0e-08
 Keep 1054 surface tesserae and discard 1184 interior tesserae
 Molecular Surface Area = 158.061 Angst**2

                       Distance Matrix (Angstroms)
             C (  1)   C (  2)   C (  3)   H (  4)   C (  5)   S (  6)
   C (  2)  1.397205
   C (  3)  2.381429  1.421388
   H (  4)  2.190968  1.100560  2.216663
   C (  5)  2.546880  2.344731  1.406234  3.381512
   S (  6)  1.757150  2.580846  2.612063  3.644075  1.761147
   C (  7)  3.799300  2.573293  1.503603  2.855594  2.578637  4.078019
   H (  8)  4.064014  2.684395  2.164115  2.511016  3.478139  4.748445
   H (  9)  4.440505  3.310871  2.175386  3.627209  2.930878  4.519053
   H ( 10)  4.440371  3.310815  2.175384  3.627105  2.930819  4.519142
   C ( 11)  1.450135  2.372561  3.455724  2.784441  3.636093  2.645778
   H ( 12)  2.095663  2.652109  3.448268  3.092622  3.593040  2.876089
   H ( 13)  2.095663  2.654456  3.954211  2.622724  4.432565  3.616589
   H ( 14)  2.095663  3.306710  4.301593  3.789932  4.204906  2.822152
   H ( 15)  3.612403  3.410270  2.265484  4.405603  1.096574  2.498355
             C (  7)   H (  8)   H (  9)   H ( 10)   C ( 11)   H ( 12)
   H (  8)  1.107252
   H (  9)  1.110076  1.787807
   H ( 10)  1.110077  1.787805  1.784855
   C ( 11)  4.763431  4.892429  5.216782  5.583742
   H ( 12)  4.639469  4.820712  4.865838  5.568857  1.080000
   H ( 13)  5.087332  4.978875  5.605131  5.939836  1.080000  1.746369
   H ( 14)  5.697223  5.907873  6.142974  6.449854  1.080000  1.746369
   H ( 15)  2.982855  4.035382  3.082485  3.082520  4.644416  4.500696
             H ( 13)   H ( 14)
   H ( 14)  1.746370
   H ( 15)  5.490465  5.129924
 
 Requested basis set is rimp2-cc-pVTZ
 There are 250 shells and 848 basis functions
 A cutoff of  1.0D-10 yielded   6315 shell pairs
 There are     46397 function pairs (     59685 Cartesian)
 Smallest overlap matrix eigenvalue = 1.31E-04

 Scale SEOQF with 1.000000e-01/1.000000e-01/1.000000e-01

 Standard Electronic Orientation quadrupole field applied
 Nucleus-field energy     =     0.0000000011 hartrees
 Guess from superposition of atomic densities
 Warning:  Energy on first SCF cycle will be non-variational
 SAD guess density has 60.000000 electrons

 -----------------------------------------------------------------------
  General SCF calculation program by
  Eric Jon Sundstrom, Paul Horn, Yuezhi Mao, Dmitri Zuev, Alec White,
  David Stuck, Shaama M.S., Shane Yost, Joonho Lee, David Small,
  Daniel Levine, Susi Lehtola, Hugh Burton, Evgeny Epifanovsky,
  Bang C. Huynh
 -----------------------------------------------------------------------
 Hartree-Fock
 A restricted SCF calculation will be
 performed using DIIS
 SCF converges when DIIS error is below 1.0e-06
 ---------------------------------------
  Cycle       Energy         DIIS error
 ---------------------------------------
    1    -632.0985520192      2.92e-02  
    2    -629.3469675611      1.91e-03  
    3    -629.4167820064      6.44e-04  
    4    -629.4239863570      3.35e-04  
    5    -629.4259808801      6.08e-05  
    6    -629.4261247318      2.80e-05  
    7    -629.4261649121      1.27e-05  
    8    -629.4261785181      6.31e-06  
    9    -629.4261810799      2.12e-06  
   10    -629.4261813795      6.81e-07  Convergence criterion met
 ---------------------------------------
 SCF time:   CPU 150.75s  wall 152.00s 

************** Final PCM Free Energy Summary **************
 G_electrostatic  =      -0.00514374 hartree =      -3.22774437 kcal/mol
 G_cavitation     =       0.00000000 hartree =       0.00000000 kcal/mol
 G_dispersion     =       0.00000000 hartree =       0.00000000 kcal/mol
 G_repulsion      =       0.00000000 hartree =       0.00000000 kcal/mol
 --------------------------------------------------
 Non-electrostatic Free Energy =       0.00000000 hartree =       0.00000000 kcal/mol
 Total                         =      -0.00514374 hartree =      -3.22774437 kcal/mol
 --------------------------------------------------
 SCF Energy (H0 + V/2)                       =    -629.42618138 
 Solute Internal Energy (H0)                 =    -629.42103764 
 Total Free Energy (H0 + V/2 + non-elec)     =    -629.42618138 hartree
                                             = -394970.89011097 kcal/mol
***********************************************************

 SCF   energy in the final basis set =     -629.4261813795
 Total energy in the final basis set =     -629.4261813795


 --------------------------------------------------------------
  Generalized many-body perturbation theory program
  by Joonho Lee, Fazle Rob, Xintian Feng, Evgeny Epifanovsky

 No regularization used 
 (reg. param. = 0.0000e+00)
  (P|Q)^-1/2 Time:  CPU 0.49 s  wall 0.49 s

 In RI-MP2 calculation: 
 # of frozen core orbitals: 11

 Components of the RIMP2 correlation energy:
        aaaa    correlation energy =        -0.1456053678 a.u.
        abab    correlation energy =        -0.8883313170 a.u.
        bbbb    correlation energy =        -0.1456053678 a.u.
        non-Brillouin singles      =        -0.0000000000 a.u.
        total same-spin energy     =        -0.2912107355 a.u.
        total opposite-spin energy =        -0.8883313170 a.u.

 Total  RIMP2   correlation energy =        -1.1795420525 a.u.
        RIMP2         total energy =      -630.6057234320 a.u.

 RI-MP2 Energy Time:  CPU 11.25 s  wall 11.30 s
 
 --------------------------------------------------------------
 
                    Orbital Energies (a.u.)
 --------------------------------------------------------------
 
 Alpha MOs
 -- Occupied --
-91.9750 -11.2729 -11.2489 -11.2474 -11.2422 -11.2284 -11.2150  -8.9755
 -6.6564  -6.6556  -6.6553  -1.1666  -1.0489  -0.9947  -0.9348  -0.8785
 -0.7448  -0.7237  -0.6386  -0.5905  -0.5829  -0.5664  -0.5628  -0.5425
 -0.5133  -0.4892  -0.4605  -0.4491  -0.3370  -0.3016
 -- Virtual --
  0.0743   0.1429   0.1579   0.1755   0.1827   0.1922   0.2111   0.2256
  0.2299   0.2452   0.2510   0.2628   0.2967   0.3022   0.3461   0.3652
  0.3765   0.3903   0.4073   0.4204   0.4281   0.4544   0.4633   0.4665
  0.4732   0.4903   0.5108   0.5365   0.5507   0.5627   0.5679   0.5770
  0.5842   0.6050   0.6123   0.6271   0.6332   0.6376   0.6428   0.6451
  0.6541   0.6647   0.6822   0.6930   0.7226   0.7442   0.7709   0.7773
  0.7914   0.8152   0.8334   0.8496   0.8639   0.8791   0.8887   0.9444
  0.9574   0.9935   1.0134   1.0189   1.0386   1.0545   1.0682   1.0817
  1.0954   1.1006   1.1173   1.1436   1.1506   1.1808   1.2005   1.2087
  1.2301   1.2399   1.2566   1.2689   1.2821   1.3050   1.3158   1.3258
  1.3559   1.3877   1.3981   1.4078   1.4187   1.4436   1.4677   1.4738
  1.4793   1.4985   1.5117   1.5303   1.5357   1.5543   1.5571   1.5742
  1.5817   1.6198   1.6371   1.6628   1.6955   1.6997   1.7065   1.7465
  1.7523   1.7872   1.7962   1.8229   1.8536   1.9002   1.9301   1.9613
  1.9744   2.0401   2.0479   2.1200   2.1537   2.1820   2.1993   2.2316
  2.2516   2.2691   2.3388   2.3946   2.4117   2.4717   2.5008   2.5315
  2.5589   2.5944   2.6250   2.6443   2.6751   2.6789   2.7007   2.7227
  2.7538   2.7798   2.7904   2.8034   2.8349   2.8397   2.8646   2.8970
  2.9368   2.9529   2.9646   2.9971   3.0367   3.0393   3.0458   3.0801
  3.1110   3.1225   3.1374   3.1606   3.1665   3.1860   3.1884   3.1899
  3.2208   3.2314   3.2484   3.2591   3.2811   3.2975   3.3155   3.3301
  3.3317   3.3497   3.3609   3.3782   3.3984   3.4183   3.4275   3.4411
  3.4472   3.4615   3.4850   3.5079   3.5215   3.5261   3.5430   3.5715
  3.5783   3.5795   3.6078   3.6244   3.6454   3.6508   3.6723   3.7047
  3.7151   3.7158   3.7326   3.7382   3.7659   3.7891   3.7969   3.8150
  3.8225   3.8418   3.8577   3.8677   3.9012   3.9297   3.9539   3.9683
  4.0035   4.0352   4.0388   4.0581   4.0724   4.1009   4.1247   4.1307
  4.1480   4.1713   4.1946   4.2057   4.2186   4.2250   4.2488   4.2660
  4.2917   4.2947   4.3030   4.3353   4.3395   4.3667   4.3715   4.3982
  4.4120   4.4338   4.4588   4.4676   4.4783   4.4943   4.5194   4.5400
  4.5984   4.6118   4.6533   4.6636   4.6929   4.7095   4.7279   4.7451
  4.7960   4.8037   4.8220   4.8652   4.8781   4.9314   5.0209   5.0878
  5.1178   5.1519   5.1770   5.2367   5.2627   5.2714   5.3044   5.3072
  5.3778   5.4058   5.4105   5.4685   5.4798   5.5044   5.5547   5.5601
  5.5979   5.6144   5.6242   5.6457   5.6835   5.7084   5.7357   5.7532
  5.8168   5.9088   5.9609   6.0905   6.2180   6.2284   6.2587   6.2827
  6.3309   6.3572   9.0538  11.4693  12.8096  13.7430  14.1892  14.8074
 --------------------------------------------------------------
 
          Ground-State Mulliken Net Atomic Charges

     Atom                 Charge (a.u.)
  ----------------------------------------
      1 C                    -0.070361
      2 C                    -0.184433
      3 C                     0.011303
      4 H                     0.181542
      5 C                    -0.213912
      6 S                     0.001976
      7 C                    -0.268704
      8 H                     0.102188
      9 H                     0.105212
     10 H                     0.106868
     11 C                    -0.287324
     12 H                     0.109898
     13 H                     0.105023
     14 H                     0.104309
     15 H                     0.196413
  ----------------------------------------
  Sum of atomic charges =     0.000000

 -----------------------------------------------------------------
                    Cartesian Multipole Moments
 -----------------------------------------------------------------
    Charge (ESU x 10^10)
                -0.0000
    Dipole Moment (Debye)
         X      -0.9981      Y      -1.4184      Z      -1.7147
       Tot       2.4389
    Quadrupole Moments (Debye-Ang)
        XX     -53.5710     XY      -1.0306     YY     -44.1961
        XZ      -0.0267     YZ      -0.0566     ZZ     -48.0022
    Octopole Moments (Debye-Ang^2)
       XXX      11.9830    XXY      32.1391    XYY       4.4092
       YYY      74.8150    XXZ       2.3623    XYZ       0.1459
       YYZ       6.2392    XZZ       4.7753    YZZ      27.7291
       ZZZ      -0.7138
    Hexadecapole Moments (Debye-Ang^3)
      XXXX    -133.0750   XXXY      50.0274   XXYY    -153.8037
      XYYY      48.4919   YYYY    -722.8157   XXXZ       0.8495
      XXYZ     -31.3017   XYYZ       0.7246   YYYZ    -109.4249
      XXZZ    -112.1042   XYZZ      15.5518   YYZZ    -195.9513
      XZZZ      -0.5889   YZZZ    -102.4520   ZZZZ    -488.8510
 -----------------------------------------------------------------
 Total job time:  166.97s(wall), 162.36s(cpu) 
 Thu Jul  7 11:18:43 2022

        *************************************************************
        *                                                           *
        *  Thank you very much for using Q-Chem.  Have a nice day.  *
        *                                                           *
        *************************************************************


remove work dirs ./qchem3161717.0 -- ./qchem3161717.-1
rm -rf ./qchem3161717
