You are running Q-Chem version: 5.4.0

#
# job setting
#
local host:  exp-5-14
current dir: /expanse/lustre/scratch/theleonzhang/temp_project/Improper_Bend_Test
input file:  Methylthiophene_Improper_Bend_Methyl_Phi_25.qcin
output file: 
nprocs     : 0
nthreads   : 1
#
# qchem installation setting
#
QC:          /cm/shared/apps/spack/cpu/opt/spack/linux-centos8-zen2/gcc-10.2.0/qchem-5.4-akfmr7b3t57bfs6qan3padb2wnb2i7cl
QCAUX:       /cm/shared/apps/spack/cpu/opt/spack/linux-centos8-zen2/gcc-10.2.0/qchem-5.4-akfmr7b3t57bfs6qan3padb2wnb2i7cl/qcaux
QCPROG:      /cm/shared/apps/spack/cpu/opt/spack/linux-centos8-zen2/gcc-10.2.0/qchem-5.4-akfmr7b3t57bfs6qan3padb2wnb2i7cl/exe/qcprog.exe_s
QCPROG_S:    /cm/shared/apps/spack/cpu/opt/spack/linux-centos8-zen2/gcc-10.2.0/qchem-5.4-akfmr7b3t57bfs6qan3padb2wnb2i7cl/exe/qcprog.exe_s
PARALLEL:    -DSERIAL
QCMPI:       mpich
#
# qchem directory setting
#
qcrun:       qchem49415
QCSCRATCH:   .
QCLOCALSCR:  
QCTMPDIR:    .
QCFILEPREF:  ./qchem49415
QCSAVEDIR:   
workdirs:    ./qchem49415
workdir0:    ./qchem49415
partmpdirs =  
#
# parallel setting
#
QCRSH:           ssh
QCMPI:           mpich
QCMPIRUN:        /cm/shared/apps/spack/cpu/opt/spack/linux-centos8-zen2/gcc-10.2.0/qchem-5.4-akfmr7b3t57bfs6qan3padb2wnb2i7cl/bin/mpi/mpirun_qchem
QCMACHINEFILE:   ./qchem49415/hostfile

#
# env setting
#
exported envs:   QC QCAUX QCSCRATCH QCRUNNAME QCFILEPREF QCPROG QCPROG_S GUIFILE

Running Job 1 of 1 Methylthiophene_Improper_Bend_Methyl_Phi_25.qcin
qchem Methylthiophene_Improper_Bend_Methyl_Phi_25.qcin_49415.0 ./qchem49415/ 0
/cm/shared/apps/spack/cpu/opt/spack/linux-centos8-zen2/gcc-10.2.0/qchem-5.4-akfmr7b3t57bfs6qan3padb2wnb2i7cl/exe/qcprog.exe_s Methylthiophene_Improper_Bend_Methyl_Phi_25.qcin_49415.0 ./qchem49415/
                  Welcome to Q-Chem
     A Quantum Leap Into The Future Of Chemistry


 Q-Chem 5.4, Q-Chem, Inc., Pleasanton, CA (2021)

 License issued to: University of California, San Diego (site)

 E. Epifanovsky,  A. T. B. Gilbert,  Xintian Feng,  Joonho Lee,  Yuezhi Mao,  
 N. Mardirossian,  P. Pokhilko,  A. White,  M. Wormit,  M. P. Coons,  
 A. L. Dempwolff,  Zhengting Gan,  D. Hait,  P. R. Horn,  L. D. Jacobson,  
 I. Kaliman,  J. Kussmann,  A. W. Lange,  Ka Un Lao,  D. S. Levine,  Jie Liu,  
 S. C. McKenzie,  A. F. Morrison,  K. Nanda,  F. Plasser,  D. R. Rehn,  
 M. L. Vidal,  Zhi-Qiang You,  Ying Zhu,  B. Alam,  B. Albrecht,  
 A. Aldossary,  E. Alguire,  J. H. Andersen,  D. Barton,  K. Begam,  A. Behn,  
 Y. A. Bernard,  E. J. Berquist,  H. Burton,  A. Carreras,  K. Carter-Fenk,  
 R. Chakraborty,  A. D. Chien,  K. D. Closser,  V. Cofer-Shabica,  
 S. Dasgupta,  Jia Deng,  M. de Wergifosse,  M. Diedenhofen,  Hainam Do,  
 S. Ehlert,  Po-Tung Fang,  S. Fatehi,  Qingguo Feng,  J. Gayvert,  
 Qinghui Ge,  G. Gidofalvi,  M. Goldey,  J. Gomes,  C. Gonzalez-Espinoza,  
 S. Gulania,  A. Gunina,  M. W. D. Hanson-Heine,  P. H. P. Harbach,  
 A. W. Hauser,  M. F. Herbst,  M. Hernandez Vera,  M. Hodecker,  
 Z. C. Holden,  S. Houck,  Xunkun Huang,  Kerwin Hui,  B. C. Huynh,  
 M. Ivanov,  Hyunjun Ji,  Hanjie Jiang,  B. Kaduk,  S. Kaehler,  
 K. Khistyaev,  Jaehoon Kim,  P. Klunzinger,  Z. Koczor-Benda,  
 Joong Hoon Koh,  D. Kosenkov,  L. Koulias,  T. Kowalczyk,  C. M. Krauter,  
 K. Kue,  A. Kunitsa,  T. Kus,  A. Landau,  K. V. Lawler,  D. Lefrancois,  
 S. Lehtola,  Rain Li,  Yi-Pei Li,  Jiashu Liang,  M. Liebenthal,  
 Hung-Hsuan Lin,  You-Sheng Lin,  Fenglai Liu,  Kuan-Yu Liu,  
 M. Loipersberger,  A. Luenser,  A. Manjanath,  P. Manohar,  E. Mansoor,  
 S. F. Manzer,  Shan-Ping Mao,  A. V. Marenich,  T. Markovich,  S. Mason,  
 S. A. Maurer,  P. F. McLaughlin,  M. F. S. J. Menger,  J.-M. Mewes,  
 S. A. Mewes,  P. Morgante,  J. W. Mullinax,  T. S. Nguyen-Beck,  
 K. J. Oosterbaan,  G. Paran,  Alexander C. Paul,  Suranjan K. Paul,  
 F. Pavosevic,  Zheng Pei,  S. Prager,  E. I. Proynov,  E. Ramos,  B. Rana,  
 A. E. Rask,  A. Rettig,  R. M. Richard,  F. Rob,  E. Rossomme,  T. Scheele,  
 M. Scheurer,  M. Schneider,  N. Sergueev,  S. M. Sharada,  W. Skomorowski,  
 D. W. Small,  C. J. Stein,  Yu-Chuan Su,  E. J. Sundstrom,  Zhen Tao,  
 J. Thirman,  T. Tsuchimochi,  N. M. Tubman,  S. P. Veccham,  O. Vydrov,  
 J. Wenzel,  J. Witte,  A. Yamada,  Kun Yao,  S. Yeganeh,  S. R. Yost,  
 A. Zech,  Igor Ying Zhang,  Xing Zhang,  Yu Zhang,  D. Zuev,  
 A. Aspuru-Guzik,  A. T. Bell,  N. A. Besley,  K. B. Bravaya,  B. R. Brooks,  
 D. Casanova,  Jeng-Da Chai,  S. Coriani,  C. J. Cramer,  
 A. E. DePrince, III,  R. A. DiStasio Jr.,  A. Dreuw,  B. D. Dunietz,  
 T. R. Furlani,  W. A. Goddard III,  S. Grimme,  S. Hammes-Schiffer,  
 T. Head-Gordon,  W. J. Hehre,  Chao-Ping Hsu,  T.-C. Jagau,  Yousung Jung,  
 A. Klamt,  Jing Kong,  D. S. Lambrecht,  WanZhen Liang,  N. J. Mayhall,  
 C. W. McCurdy,  J. B. Neaton,  C. Ochsenfeld,  J. A. Parkhill,  R. Peverati,  
 V. A. Rassolov,  Yihan Shao,  L. V. Slipchenko,  T. Stauch,  R. P. Steele,  
 J. E. Subotnik,  A. J. W. Thom,  A. Tkatchenko,  D. G. Truhlar,  
 T. Van Voorhis,  T. A. Wesolowski,  K. B. Whaley,  H. L. Woodcock III,  
 P. M. Zimmerman,  S. Faraji,  P. M. W. Gill,  M. Head-Gordon,  
 J. M. Herbert,  A. I. Krylov

 Contributors to earlier versions of Q-Chem not listed above: 
 R. D. Adamson,  B. Austin,  R. Baer,  J. Baker,  G. J. O. Beran,  
 K. Brandhorst,  S. T. Brown,  E. F. C. Byrd,  A. K. Chakraborty,  
 G. K. L. Chan,  Chun-Min Chang,  Yunqing Chen,  C.-L. Cheng,  
 Siu Hung Chien,  D. M. Chipman,  D. L. Crittenden,  H. Dachsel,  
 R. J. Doerksen,  A. D. Dutoi,  R. G. Edgar,  J. Fosso-Tande,  
 L. Fusti-Molnar,  D. Ghosh,  A. Ghysels,  A. Golubeva-Zadorozhnaya,  
 J. Gonthier,  M. S. Gordon,  S. R. Gwaltney,  G. Hawkins,  J. E. Herr,  
 A. Heyden,  S. Hirata,  E. G. Hohenstein,  G. Kedziora,  F. J. Keil,  
 C. Kelley,  Jihan Kim,  R. A. King,  R. Z. Khaliullin,  P. P. Korambath,  
 W. Kurlancheek,  A. Laurent,  A. M. Lee,  M. S. Lee,  S. V. Levchenko,  
 Ching Yeh Lin,  D. Liotard,  E. Livshits,  R. C. Lochan,  I. Lotan,  
 L. A. Martinez-Martinez,  P. E. Maslen,  N. Nair,  D. P. O'Neill,  
 D. Neuhauser,  E. Neuscamman,  C. M. Oana,  R. Olivares-Amaya,  R. Olson,  
 T. M. Perrine,  B. Peters,  P. A. Pieniazek,  A. Prociuk,  Y. M. Rhee,  
 J. Ritchie,  M. A. Rohrdanz,  E. Rosta,  N. J. Russ,  H. F. Schaefer III,  
 M. W. Schmidt,  N. E. Schultz,  S. Sharma,  N. Shenvi,  C. D. Sherrill,  
 A. C. Simmonett,  A. Sodt,  T. Stein,  D. Stuck,  K. S. Thanthiriwatte,  
 V. Vanovschi,  L. Vogt,  Tao Wang,  A. Warshel,  M. A. Watson,  
 C. F. Williams,  Q. Wu,  X. Xu,  Jun Yang,  W. Zhang,  Yan Zhao

 Please cite Q-Chem as follows:
 Y. Shao et al., Mol. Phys. 113, 184-215 (2015)
 DOI: 10.1080/00268976.2014.952696

 Q-Chem 5.4.0 for Intel X86 EM64T Linux

 Parts of Q-Chem use Armadillo 9.800.1 (Horizon Scraper).
 http://arma.sourceforge.net/

 Q-Chem begins on Thu Jul  7 11:37:03 2022  

 Host: 
0

     Scratch files written to ./qchem49415//
 May1621 |scratch|qcdevops|jenkins|workspace|build_RNUM    
 Processing $rem in /cm/shared/apps/spack/cpu/opt/spack/linux-centos8-zen2/gcc-10.2.0/qchem-5.4-akfmr7b3t57bfs6qan3padb2wnb2i7cl/config/preferences:
 Processing $rem in /home/theleonzhang/.qchemrc:
 Symmetry turned off for PCM/SM12/SMD calculation
 Core orbitals will be frozen

 Checking the input file for inconsistencies... 	...done.

--------------------------------------------------------------
User input:
--------------------------------------------------------------
$molecule
0 1
C	0.043224	0.586258	-0.001077
C	0.043177	-0.258088	-1.114298
C	0.043483	-1.649136	-0.822186
H	0.043121	0.130254	-2.144066
C	0.043720	-1.897616	0.561921
S	0.043020	-0.384704	1.463440
C	0.043725	-2.713495	-1.884241
H	0.043548	-2.265304	-2.896729
H	-0.848513	-3.369766	-1.810154
H	0.936342	-3.369262	-1.810248
C	-0.569630	1.900527	-0.001077
H	-1.646999	1.825190	-0.001077
H	-0.276299	2.464358	-0.874262
H	-0.276299	2.464358	0.872108
H	0.043862	-2.855775	1.095219
$end

$rem
JOBTYPE		SP
EXCHANGE	HF
CORRELATION	pRIMP2
BASIS		cc-pvtz
METHOD		rimp2
AUX_BASIS	rimp2-cc-pvtz
SOLVENT_METHOD	PCM
PURECART	11111
SYMMETRY	false
MEM_TOTAL	110000
SCF_CONVERGENCE = 6
THRESH=10
$end



$solvent
dielectric 4.90
$end
--------------------------------------------------------------
 ----------------------------------------------------------------
             Standard Nuclear Orientation (Angstroms)
    I     Atom           X                Y                Z
 ----------------------------------------------------------------
    1      C       0.0432240000     0.5862580000    -0.0010770000
    2      C       0.0431770000    -0.2580880000    -1.1142980000
    3      C       0.0434830000    -1.6491360000    -0.8221860000
    4      H       0.0431210000     0.1302540000    -2.1440660000
    5      C       0.0437200000    -1.8976160000     0.5619210000
    6      S       0.0430200000    -0.3847040000     1.4634400000
    7      C       0.0437250000    -2.7134950000    -1.8842410000
    8      H       0.0435480000    -2.2653040000    -2.8967290000
    9      H      -0.8485130000    -3.3697660000    -1.8101540000
   10      H       0.9363420000    -3.3692620000    -1.8102480000
   11      C      -0.5696300000     1.9005270000    -0.0010770000
   12      H      -1.6469990000     1.8251900000    -0.0010770000
   13      H      -0.2762990000     2.4643580000    -0.8742620000
   14      H      -0.2762990000     2.4643580000     0.8721080000
   15      H       0.0438620000    -2.8557750000     1.0952190000
 ----------------------------------------------------------------
 Nuclear Repulsion Energy =         345.10567338 hartrees
 There are       30 alpha and       30 beta electrons

 Q-Chem warning in module forms1/BasisType.C, line 2236:

 You are not using the predefined 5D/6D in this basis set.

 Requested basis set is cc-pVTZ
 There are 120 shells and 326 basis functions

 Total QAlloc Memory Limit 110000 MB
 Mega-Array Size       188 MB
 MEM_STATIC part       192 MB
 Discretize the solute cavity surface with Lebedev spheres
	Using 110 Lebedev grid points for each H atom
	Using 194 Lebedev grid points for other atoms
	Atomic van der Waals radii will be scaled by 1.20
 Remove points where switching function is < 1.0e-08
 Keep 1061 surface tesserae and discard 1177 interior tesserae
 Molecular Surface Area = 159.195 Angst**2

                       Distance Matrix (Angstroms)
             C (  1)   C (  2)   C (  3)   H (  4)   C (  5)   S (  6)
   C (  2)  1.397205
   C (  3)  2.381429  1.421388
   H (  4)  2.190968  1.100560  2.216663
   C (  5)  2.546880  2.344731  1.406234  3.381512
   S (  6)  1.757150  2.580846  2.612063  3.644075  1.761147
   C (  7)  3.799300  2.573293  1.503603  2.855594  2.578637  4.078019
   H (  8)  4.064014  2.684395  2.164115  2.511016  3.478139  4.748445
   H (  9)  4.440505  3.310871  2.175386  3.627209  2.930878  4.519053
   H ( 10)  4.440371  3.310815  2.175384  3.627105  2.930819  4.519142
   C ( 11)  1.450136  2.504878  3.694622  2.846354  3.888323  2.782522
   H ( 12)  2.095664  2.904480  3.950049  3.212743  4.127321  3.143979
   H ( 13)  2.095664  2.751617  4.126234  2.676280  4.603461  3.699185
   H ( 14)  2.095664  3.385201  4.460238  3.827189  4.384683  2.927250
   H ( 15)  3.612403  3.410270  2.265484  4.405603  1.096574  2.498355
             C (  7)   H (  8)   H (  9)   H ( 10)   C ( 11)   H ( 12)
   H (  8)  1.107252
   H (  9)  1.110076  1.787807
   H ( 10)  1.110077  1.787805  1.784855
   C ( 11)  5.021126  5.110277  5.579115  5.771631
   H ( 12)  5.196587  5.289129  5.558589  6.076930  1.080000
   H ( 13)  5.285133  5.153870  5.936356  6.031392  1.080000  1.746369
   H ( 14)  5.874524  6.056083  6.446624  6.534268  1.080000  1.746369
   H ( 15)  2.982855  4.035382  3.082485  3.082520  4.919415  5.096303
             H ( 13)   H ( 14)
   H ( 14)  1.746370
   H ( 15)  5.682004  5.334426
 
 Requested basis set is rimp2-cc-pVTZ
 There are 250 shells and 848 basis functions
 A cutoff of  1.0D-10 yielded   6194 shell pairs
 There are     45346 function pairs (     58295 Cartesian)
 Smallest overlap matrix eigenvalue = 1.18E-04

 Scale SEOQF with 1.000000e-01/1.000000e-01/1.000000e-01

 Standard Electronic Orientation quadrupole field applied
 Nucleus-field energy     =     0.0000000019 hartrees
 Guess from superposition of atomic densities
 Warning:  Energy on first SCF cycle will be non-variational
 SAD guess density has 60.000000 electrons

 -----------------------------------------------------------------------
  General SCF calculation program by
  Eric Jon Sundstrom, Paul Horn, Yuezhi Mao, Dmitri Zuev, Alec White,
  David Stuck, Shaama M.S., Shane Yost, Joonho Lee, David Small,
  Daniel Levine, Susi Lehtola, Hugh Burton, Evgeny Epifanovsky,
  Bang C. Huynh
 -----------------------------------------------------------------------
 Hartree-Fock
 A restricted SCF calculation will be
 performed using DIIS
 SCF converges when DIIS error is below 1.0e-06
 ---------------------------------------
  Cycle       Energy         DIIS error
 ---------------------------------------
    1    -632.0430384067      2.90e-02  
    2    -629.3833552687      1.91e-03  
    3    -629.4529946604      6.42e-04  
    4    -629.4600640186      3.29e-04  
    5    -629.4619611594      5.97e-05  
    6    -629.4620865949      2.37e-05  
    7    -629.4621178191      1.11e-05  
    8    -629.4621268217      4.47e-06  
    9    -629.4621281228      1.68e-06  
   10    -629.4621282672      5.47e-07  Convergence criterion met
 ---------------------------------------
 SCF time:   CPU 145.22s  wall 147.00s 

************** Final PCM Free Energy Summary **************
 G_electrostatic  =      -0.00490470 hartree =      -3.07774318 kcal/mol
 G_cavitation     =       0.00000000 hartree =       0.00000000 kcal/mol
 G_dispersion     =       0.00000000 hartree =       0.00000000 kcal/mol
 G_repulsion      =       0.00000000 hartree =       0.00000000 kcal/mol
 --------------------------------------------------
 Non-electrostatic Free Energy =       0.00000000 hartree =       0.00000000 kcal/mol
 Total                         =      -0.00490470 hartree =      -3.07774318 kcal/mol
 --------------------------------------------------
 SCF Energy (H0 + V/2)                       =    -629.46212827 
 Solute Internal Energy (H0)                 =    -629.45722357 
 Total Free Energy (H0 + V/2 + non-elec)     =    -629.46212827 hartree
                                             = -394993.44712348 kcal/mol
***********************************************************

 SCF   energy in the final basis set =     -629.4621282672
 Total energy in the final basis set =     -629.4621282672


 --------------------------------------------------------------
  Generalized many-body perturbation theory program
  by Joonho Lee, Fazle Rob, Xintian Feng, Evgeny Epifanovsky

 No regularization used 
 (reg. param. = 0.0000e+00)
  (P|Q)^-1/2 Time:  CPU 0.48 s  wall 0.48 s

 In RI-MP2 calculation: 
 # of frozen core orbitals: 11

 Components of the RIMP2 correlation energy:
        aaaa    correlation energy =        -0.1442765160 a.u.
        abab    correlation energy =        -0.8834159038 a.u.
        bbbb    correlation energy =        -0.1442765160 a.u.
        non-Brillouin singles      =        -0.0000000000 a.u.
        total same-spin energy     =        -0.2885530319 a.u.
        total opposite-spin energy =        -0.8834159038 a.u.

 Total  RIMP2   correlation energy =        -1.1719689358 a.u.
        RIMP2         total energy =      -630.6340972030 a.u.

 RI-MP2 Energy Time:  CPU 11.07 s  wall 11.10 s
 
 --------------------------------------------------------------
 
                    Orbital Energies (a.u.)
 --------------------------------------------------------------
 
 Alpha MOs
 -- Occupied --
-91.9774 -11.2647 -11.2585 -11.2472 -11.2307 -11.2272 -11.2189  -8.9773
 -6.6582  -6.6577  -6.6571  -1.1597  -1.0468  -0.9941  -0.9371  -0.8802
 -0.7406  -0.7185  -0.6392  -0.5893  -0.5832  -0.5657  -0.5630  -0.5438
 -0.5080  -0.4900  -0.4750  -0.4550  -0.3374  -0.3002
 -- Virtual --
  0.0979   0.1446   0.1538   0.1758   0.1848   0.1924   0.2123   0.2277
  0.2299   0.2449   0.2532   0.2630   0.2982   0.3131   0.3472   0.3703
  0.3831   0.3938   0.3988   0.4105   0.4348   0.4515   0.4654   0.4771
  0.4831   0.5017   0.5099   0.5377   0.5390   0.5673   0.5735   0.5871
  0.5989   0.6076   0.6128   0.6207   0.6343   0.6397   0.6431   0.6481
  0.6516   0.6685   0.6804   0.6861   0.7218   0.7498   0.7670   0.7875
  0.8014   0.8178   0.8444   0.8608   0.8627   0.8881   0.9013   0.9266
  0.9564   0.9707   1.0086   1.0230   1.0444   1.0471   1.0662   1.0761
  1.0859   1.0919   1.0968   1.1264   1.1569   1.1719   1.1876   1.2097
  1.2331   1.2399   1.2535   1.2608   1.2823   1.2892   1.3211   1.3349
  1.3546   1.3735   1.3923   1.4057   1.4171   1.4460   1.4648   1.4755
  1.4862   1.5002   1.5185   1.5320   1.5475   1.5494   1.5640   1.5784
  1.5818   1.6278   1.6356   1.6718   1.6901   1.6963   1.7091   1.7440
  1.7603   1.7697   1.8064   1.8316   1.8783   1.9079   1.9207   1.9662
  2.0011   2.0365   2.0730   2.1068   2.1431   2.1840   2.2146   2.2220
  2.2614   2.2796   2.3553   2.4143   2.4277   2.4811   2.5082   2.5391
  2.5527   2.5848   2.6233   2.6381   2.6595   2.6808   2.6898   2.7230
  2.7476   2.7618   2.7887   2.7980   2.8204   2.8382   2.8510   2.8685
  2.9037   2.9428   2.9681   3.0007   3.0321   3.0393   3.0570   3.1056
  3.1108   3.1310   3.1378   3.1451   3.1599   3.1678   3.1868   3.2005
  3.2199   3.2534   3.2628   3.2765   3.2816   3.3026   3.3096   3.3346
  3.3420   3.3582   3.3740   3.3841   3.4025   3.4263   3.4299   3.4354
  3.4398   3.4733   3.4816   3.4976   3.5173   3.5289   3.5424   3.5614
  3.5843   3.5982   3.6070   3.6128   3.6279   3.6491   3.6796   3.6841
  3.6955   3.7118   3.7316   3.7436   3.7527   3.7682   3.7756   3.7874
  3.8075   3.8217   3.8292   3.8648   3.8788   3.9255   3.9501   3.9625
  3.9795   4.0051   4.0208   4.0369   4.0477   4.1047   4.1194   4.1326
  4.1469   4.1592   4.1671   4.1831   4.2211   4.2298   4.2310   4.2659
  4.2899   4.2912   4.3021   4.3402   4.3429   4.3623   4.3724   4.3832
  4.4020   4.4285   4.4348   4.4462   4.4589   4.4693   4.5096   4.5310
  4.5686   4.6159   4.6468   4.6610   4.7000   4.7066   4.7486   4.7642
  4.7961   4.8069   4.8218   4.8553   4.8681   4.9109   5.0505   5.1064
  5.1303   5.1610   5.1832   5.2246   5.2612   5.2798   5.2996   5.3282
  5.3632   5.4029   5.4397   5.4540   5.4745   5.4951   5.5452   5.5677
  5.5860   5.6015   5.6256   5.6379   5.6707   5.7081   5.7252   5.7417
  5.8273   5.9481   5.9773   6.1120   6.2250   6.2279   6.2723   6.2822
  6.3246   6.4400   9.0161  11.3191  12.8742  13.8230  14.1896  14.7791
 --------------------------------------------------------------
 
          Ground-State Mulliken Net Atomic Charges

     Atom                 Charge (a.u.)
  ----------------------------------------
      1 C                     0.008251
      2 C                    -0.273582
      3 C                     0.045299
      4 H                     0.179040
      5 C                    -0.256023
      6 S                    -0.004306
      7 C                    -0.270968
      8 H                     0.101683
      9 H                     0.106485
     10 H                     0.106863
     11 C                    -0.282870
     12 H                     0.120014
     13 H                     0.114653
     14 H                     0.111245
     15 H                     0.194215
  ----------------------------------------
  Sum of atomic charges =     0.000000

 -----------------------------------------------------------------
                    Cartesian Multipole Moments
 -----------------------------------------------------------------
    Charge (ESU x 10^10)
                -0.0000
    Dipole Moment (Debye)
         X      -0.6408      Y      -0.1636      Z      -1.5394
       Tot       1.6754
    Quadrupole Moments (Debye-Ang)
        XX     -53.5953     XY      -0.7840     YY     -43.1968
        XZ       0.0157     YZ       0.2207     ZZ     -48.4293
    Octopole Moments (Debye-Ang^2)
       XXX       5.3856    XXY      32.4772    XYY       2.0090
       YYY      75.7726    XXZ       2.5531    XYZ       0.0925
       YYZ       5.3552    XZZ       2.8789    YZZ      26.3023
       ZZZ       0.3465
    Hexadecapole Moments (Debye-Ang^3)
      XXXX     -92.4289   XXXY      30.1457   XXYY    -158.1653
      XYYY      31.9347   YYYY    -792.8816   XXXZ       0.5663
      XXYZ     -31.0590   XYYZ       0.3718   YYYZ    -107.7175
      XXZZ    -106.1727   XYZZ      11.0578   YYZZ    -207.6579
      XZZZ      -0.1184   YZZZ    -102.9157   ZZZZ    -491.1395
 -----------------------------------------------------------------
 Total job time:  160.23s(wall), 156.64s(cpu) 
 Thu Jul  7 11:39:43 2022

        *************************************************************
        *                                                           *
        *  Thank you very much for using Q-Chem.  Have a nice day.  *
        *                                                           *
        *************************************************************


remove work dirs ./qchem49415.0 -- ./qchem49415.-1
rm -rf ./qchem49415
