You are running Q-Chem version: 5.4.0

#
# job setting
#
local host:  exp-7-21
current dir: /expanse/lustre/scratch/theleonzhang/temp_project/Improper_Bend_Test
input file:  Methylthiophene_Improper_Bend_Methyl_Phi_20.qcin
output file: 
nprocs     : 0
nthreads   : 1
#
# qchem installation setting
#
QC:          /cm/shared/apps/spack/cpu/opt/spack/linux-centos8-zen2/gcc-10.2.0/qchem-5.4-akfmr7b3t57bfs6qan3padb2wnb2i7cl
QCAUX:       /cm/shared/apps/spack/cpu/opt/spack/linux-centos8-zen2/gcc-10.2.0/qchem-5.4-akfmr7b3t57bfs6qan3padb2wnb2i7cl/qcaux
QCPROG:      /cm/shared/apps/spack/cpu/opt/spack/linux-centos8-zen2/gcc-10.2.0/qchem-5.4-akfmr7b3t57bfs6qan3padb2wnb2i7cl/exe/qcprog.exe_s
QCPROG_S:    /cm/shared/apps/spack/cpu/opt/spack/linux-centos8-zen2/gcc-10.2.0/qchem-5.4-akfmr7b3t57bfs6qan3padb2wnb2i7cl/exe/qcprog.exe_s
PARALLEL:    -DSERIAL
QCMPI:       mpich
#
# qchem directory setting
#
qcrun:       qchem3159216
QCSCRATCH:   .
QCLOCALSCR:  
QCTMPDIR:    .
QCFILEPREF:  ./qchem3159216
QCSAVEDIR:   
workdirs:    ./qchem3159216
workdir0:    ./qchem3159216
partmpdirs =  
#
# parallel setting
#
QCRSH:           ssh
QCMPI:           mpich
QCMPIRUN:        /cm/shared/apps/spack/cpu/opt/spack/linux-centos8-zen2/gcc-10.2.0/qchem-5.4-akfmr7b3t57bfs6qan3padb2wnb2i7cl/bin/mpi/mpirun_qchem
QCMACHINEFILE:   ./qchem3159216/hostfile

#
# env setting
#
exported envs:   QC QCAUX QCSCRATCH QCRUNNAME QCFILEPREF QCPROG QCPROG_S GUIFILE

Running Job 1 of 1 Methylthiophene_Improper_Bend_Methyl_Phi_20.qcin
qchem Methylthiophene_Improper_Bend_Methyl_Phi_20.qcin_3159216.0 ./qchem3159216/ 0
/cm/shared/apps/spack/cpu/opt/spack/linux-centos8-zen2/gcc-10.2.0/qchem-5.4-akfmr7b3t57bfs6qan3padb2wnb2i7cl/exe/qcprog.exe_s Methylthiophene_Improper_Bend_Methyl_Phi_20.qcin_3159216.0 ./qchem3159216/
                  Welcome to Q-Chem
     A Quantum Leap Into The Future Of Chemistry


 Q-Chem 5.4, Q-Chem, Inc., Pleasanton, CA (2021)

 License issued to: University of California, San Diego (site)

 E. Epifanovsky,  A. T. B. Gilbert,  Xintian Feng,  Joonho Lee,  Yuezhi Mao,  
 N. Mardirossian,  P. Pokhilko,  A. White,  M. Wormit,  M. P. Coons,  
 A. L. Dempwolff,  Zhengting Gan,  D. Hait,  P. R. Horn,  L. D. Jacobson,  
 I. Kaliman,  J. Kussmann,  A. W. Lange,  Ka Un Lao,  D. S. Levine,  Jie Liu,  
 S. C. McKenzie,  A. F. Morrison,  K. Nanda,  F. Plasser,  D. R. Rehn,  
 M. L. Vidal,  Zhi-Qiang You,  Ying Zhu,  B. Alam,  B. Albrecht,  
 A. Aldossary,  E. Alguire,  J. H. Andersen,  D. Barton,  K. Begam,  A. Behn,  
 Y. A. Bernard,  E. J. Berquist,  H. Burton,  A. Carreras,  K. Carter-Fenk,  
 R. Chakraborty,  A. D. Chien,  K. D. Closser,  V. Cofer-Shabica,  
 S. Dasgupta,  Jia Deng,  M. de Wergifosse,  M. Diedenhofen,  Hainam Do,  
 S. Ehlert,  Po-Tung Fang,  S. Fatehi,  Qingguo Feng,  J. Gayvert,  
 Qinghui Ge,  G. Gidofalvi,  M. Goldey,  J. Gomes,  C. Gonzalez-Espinoza,  
 S. Gulania,  A. Gunina,  M. W. D. Hanson-Heine,  P. H. P. Harbach,  
 A. W. Hauser,  M. F. Herbst,  M. Hernandez Vera,  M. Hodecker,  
 Z. C. Holden,  S. Houck,  Xunkun Huang,  Kerwin Hui,  B. C. Huynh,  
 M. Ivanov,  Hyunjun Ji,  Hanjie Jiang,  B. Kaduk,  S. Kaehler,  
 K. Khistyaev,  Jaehoon Kim,  P. Klunzinger,  Z. Koczor-Benda,  
 Joong Hoon Koh,  D. Kosenkov,  L. Koulias,  T. Kowalczyk,  C. M. Krauter,  
 K. Kue,  A. Kunitsa,  T. Kus,  A. Landau,  K. V. Lawler,  D. Lefrancois,  
 S. Lehtola,  Rain Li,  Yi-Pei Li,  Jiashu Liang,  M. Liebenthal,  
 Hung-Hsuan Lin,  You-Sheng Lin,  Fenglai Liu,  Kuan-Yu Liu,  
 M. Loipersberger,  A. Luenser,  A. Manjanath,  P. Manohar,  E. Mansoor,  
 S. F. Manzer,  Shan-Ping Mao,  A. V. Marenich,  T. Markovich,  S. Mason,  
 S. A. Maurer,  P. F. McLaughlin,  M. F. S. J. Menger,  J.-M. Mewes,  
 S. A. Mewes,  P. Morgante,  J. W. Mullinax,  T. S. Nguyen-Beck,  
 K. J. Oosterbaan,  G. Paran,  Alexander C. Paul,  Suranjan K. Paul,  
 F. Pavosevic,  Zheng Pei,  S. Prager,  E. I. Proynov,  E. Ramos,  B. Rana,  
 A. E. Rask,  A. Rettig,  R. M. Richard,  F. Rob,  E. Rossomme,  T. Scheele,  
 M. Scheurer,  M. Schneider,  N. Sergueev,  S. M. Sharada,  W. Skomorowski,  
 D. W. Small,  C. J. Stein,  Yu-Chuan Su,  E. J. Sundstrom,  Zhen Tao,  
 J. Thirman,  T. Tsuchimochi,  N. M. Tubman,  S. P. Veccham,  O. Vydrov,  
 J. Wenzel,  J. Witte,  A. Yamada,  Kun Yao,  S. Yeganeh,  S. R. Yost,  
 A. Zech,  Igor Ying Zhang,  Xing Zhang,  Yu Zhang,  D. Zuev,  
 A. Aspuru-Guzik,  A. T. Bell,  N. A. Besley,  K. B. Bravaya,  B. R. Brooks,  
 D. Casanova,  Jeng-Da Chai,  S. Coriani,  C. J. Cramer,  
 A. E. DePrince, III,  R. A. DiStasio Jr.,  A. Dreuw,  B. D. Dunietz,  
 T. R. Furlani,  W. A. Goddard III,  S. Grimme,  S. Hammes-Schiffer,  
 T. Head-Gordon,  W. J. Hehre,  Chao-Ping Hsu,  T.-C. Jagau,  Yousung Jung,  
 A. Klamt,  Jing Kong,  D. S. Lambrecht,  WanZhen Liang,  N. J. Mayhall,  
 C. W. McCurdy,  J. B. Neaton,  C. Ochsenfeld,  J. A. Parkhill,  R. Peverati,  
 V. A. Rassolov,  Yihan Shao,  L. V. Slipchenko,  T. Stauch,  R. P. Steele,  
 J. E. Subotnik,  A. J. W. Thom,  A. Tkatchenko,  D. G. Truhlar,  
 T. Van Voorhis,  T. A. Wesolowski,  K. B. Whaley,  H. L. Woodcock III,  
 P. M. Zimmerman,  S. Faraji,  P. M. W. Gill,  M. Head-Gordon,  
 J. M. Herbert,  A. I. Krylov

 Contributors to earlier versions of Q-Chem not listed above: 
 R. D. Adamson,  B. Austin,  R. Baer,  J. Baker,  G. J. O. Beran,  
 K. Brandhorst,  S. T. Brown,  E. F. C. Byrd,  A. K. Chakraborty,  
 G. K. L. Chan,  Chun-Min Chang,  Yunqing Chen,  C.-L. Cheng,  
 Siu Hung Chien,  D. M. Chipman,  D. L. Crittenden,  H. Dachsel,  
 R. J. Doerksen,  A. D. Dutoi,  R. G. Edgar,  J. Fosso-Tande,  
 L. Fusti-Molnar,  D. Ghosh,  A. Ghysels,  A. Golubeva-Zadorozhnaya,  
 J. Gonthier,  M. S. Gordon,  S. R. Gwaltney,  G. Hawkins,  J. E. Herr,  
 A. Heyden,  S. Hirata,  E. G. Hohenstein,  G. Kedziora,  F. J. Keil,  
 C. Kelley,  Jihan Kim,  R. A. King,  R. Z. Khaliullin,  P. P. Korambath,  
 W. Kurlancheek,  A. Laurent,  A. M. Lee,  M. S. Lee,  S. V. Levchenko,  
 Ching Yeh Lin,  D. Liotard,  E. Livshits,  R. C. Lochan,  I. Lotan,  
 L. A. Martinez-Martinez,  P. E. Maslen,  N. Nair,  D. P. O'Neill,  
 D. Neuhauser,  E. Neuscamman,  C. M. Oana,  R. Olivares-Amaya,  R. Olson,  
 T. M. Perrine,  B. Peters,  P. A. Pieniazek,  A. Prociuk,  Y. M. Rhee,  
 J. Ritchie,  M. A. Rohrdanz,  E. Rosta,  N. J. Russ,  H. F. Schaefer III,  
 M. W. Schmidt,  N. E. Schultz,  S. Sharma,  N. Shenvi,  C. D. Sherrill,  
 A. C. Simmonett,  A. Sodt,  T. Stein,  D. Stuck,  K. S. Thanthiriwatte,  
 V. Vanovschi,  L. Vogt,  Tao Wang,  A. Warshel,  M. A. Watson,  
 C. F. Williams,  Q. Wu,  X. Xu,  Jun Yang,  W. Zhang,  Yan Zhao

 Please cite Q-Chem as follows:
 Y. Shao et al., Mol. Phys. 113, 184-215 (2015)
 DOI: 10.1080/00268976.2014.952696

 Q-Chem 5.4.0 for Intel X86 EM64T Linux

 Parts of Q-Chem use Armadillo 9.800.1 (Horizon Scraper).
 http://arma.sourceforge.net/

 Q-Chem begins on Thu Jul  7 11:07:43 2022  

 Host: 
0

     Scratch files written to ./qchem3159216//
 May1621 |scratch|qcdevops|jenkins|workspace|build_RNUM    
 Processing $rem in /cm/shared/apps/spack/cpu/opt/spack/linux-centos8-zen2/gcc-10.2.0/qchem-5.4-akfmr7b3t57bfs6qan3padb2wnb2i7cl/config/preferences:
 Processing $rem in /home/theleonzhang/.qchemrc:
 Symmetry turned off for PCM/SM12/SMD calculation
 Core orbitals will be frozen

 Checking the input file for inconsistencies... 	...done.

--------------------------------------------------------------
User input:
--------------------------------------------------------------
$molecule
0 1
C	0.034972	0.582840	-0.001077
C	0.034925	-0.261506	-1.114298
C	0.035231	-1.652554	-0.822186
H	0.034869	0.126836	-2.144066
C	0.035468	-1.901034	0.561921
S	0.034768	-0.388122	1.463440
C	0.035473	-2.716913	-1.884241
H	0.035296	-2.268722	-2.896729
H	-0.856765	-3.373184	-1.810154
H	0.928090	-3.372680	-1.810248
C	-0.461003	1.945521	-0.001077
H	-1.540839	1.964370	-0.001077
H	-0.119648	2.481641	-0.874262
H	-0.119648	2.481641	0.872108
H	0.035610	-2.859193	1.095219
$end

$rem
JOBTYPE		SP
EXCHANGE	HF
CORRELATION	pRIMP2
BASIS		cc-pvtz
METHOD		rimp2
AUX_BASIS	rimp2-cc-pvtz
SOLVENT_METHOD	PCM
PURECART	11111
SYMMETRY	false
MEM_TOTAL	110000
SCF_CONVERGENCE = 6
THRESH=10
$end



$solvent
dielectric 4.90
$end
--------------------------------------------------------------
 ----------------------------------------------------------------
             Standard Nuclear Orientation (Angstroms)
    I     Atom           X                Y                Z
 ----------------------------------------------------------------
    1      C       0.0349720000     0.5828400000    -0.0010770000
    2      C       0.0349250000    -0.2615060000    -1.1142980000
    3      C       0.0352310000    -1.6525540000    -0.8221860000
    4      H       0.0348690000     0.1268360000    -2.1440660000
    5      C       0.0354680000    -1.9010340000     0.5619210000
    6      S       0.0347680000    -0.3881220000     1.4634400000
    7      C       0.0354730000    -2.7169130000    -1.8842410000
    8      H       0.0352960000    -2.2687220000    -2.8967290000
    9      H      -0.8567650000    -3.3731840000    -1.8101540000
   10      H       0.9280900000    -3.3726800000    -1.8102480000
   11      C      -0.4610030000     1.9455210000    -0.0010770000
   12      H      -1.5408390000     1.9643700000    -0.0010770000
   13      H      -0.1196480000     2.4816410000    -0.8742620000
   14      H      -0.1196480000     2.4816410000     0.8721080000
   15      H       0.0356100000    -2.8591930000     1.0952190000
 ----------------------------------------------------------------
 Nuclear Repulsion Energy =         344.69914476 hartrees
 There are       30 alpha and       30 beta electrons

 Q-Chem warning in module forms1/BasisType.C, line 2236:

 You are not using the predefined 5D/6D in this basis set.

 Requested basis set is cc-pVTZ
 There are 120 shells and 326 basis functions

 Total QAlloc Memory Limit 110000 MB
 Mega-Array Size       188 MB
 MEM_STATIC part       192 MB
 Discretize the solute cavity surface with Lebedev spheres
	Using 110 Lebedev grid points for each H atom
	Using 194 Lebedev grid points for other atoms
	Atomic van der Waals radii will be scaled by 1.20
 Remove points where switching function is < 1.0e-08
 Keep 1065 surface tesserae and discard 1173 interior tesserae
 Molecular Surface Area = 159.338 Angst**2

                       Distance Matrix (Angstroms)
             C (  1)   C (  2)   C (  3)   H (  4)   C (  5)   S (  6)
   C (  2)  1.397205
   C (  3)  2.381429  1.421388
   H (  4)  2.190968  1.100560  2.216663
   C (  5)  2.546880  2.344731  1.406234  3.381512
   S (  6)  1.757150  2.580846  2.612063  3.644075  1.761147
   C (  7)  3.799300  2.573293  1.503603  2.855594  2.578637  4.078019
   H (  8)  4.064014  2.684395  2.164115  2.511016  3.478139  4.748445
   H (  9)  4.440505  3.310871  2.175386  3.627209  2.930878  4.519053
   H ( 10)  4.440371  3.310815  2.175384  3.627105  2.930819  4.519142
   C ( 11)  1.450135  2.521145  3.723790  2.854103  3.919112  2.799373
   H ( 12)  2.095663  2.945644  4.029932  3.232923  4.212251  3.187721
   H ( 13)  2.095663  2.757964  4.137423  2.679810  4.614599  3.704623
   H ( 14)  2.095663  3.390362  4.470591  3.829659  4.396375  2.934120
   H ( 15)  3.612403  3.410270  2.265484  4.405603  1.096574  2.498355
             C (  7)   H (  8)   H (  9)   H ( 10)   C ( 11)   H ( 12)
   H (  8)  1.107252
   H (  9)  1.110076  1.787807
   H ( 10)  1.110077  1.787805  1.784855
   C ( 11)  5.052829  5.137213  5.631874  5.786704
   H ( 12)  5.286348  5.365452  5.677165  6.152464  1.080000
   H ( 13)  5.298026  5.165300  5.974798  6.020540  1.080000  1.746369
   H ( 14)  5.886127  6.065813  6.482040  6.524252  1.080000  1.746369
   H ( 15)  2.982855  4.035382  3.082485  3.082520  4.953157  5.191707
             H ( 13)   H ( 14)
   H ( 14)  1.746370
   H ( 15)  5.694512  5.347746
 
 Requested basis set is rimp2-cc-pVTZ
 There are 250 shells and 848 basis functions
 A cutoff of  1.0D-10 yielded   6185 shell pairs
 There are     45315 function pairs (     58258 Cartesian)
 Smallest overlap matrix eigenvalue = 1.12E-04

 Scale SEOQF with 1.000000e-01/1.000000e-01/1.000000e-01

 Standard Electronic Orientation quadrupole field applied
 Nucleus-field energy     =     0.0000000020 hartrees
 Guess from superposition of atomic densities
 Warning:  Energy on first SCF cycle will be non-variational
 SAD guess density has 60.000000 electrons

 -----------------------------------------------------------------------
  General SCF calculation program by
  Eric Jon Sundstrom, Paul Horn, Yuezhi Mao, Dmitri Zuev, Alec White,
  David Stuck, Shaama M.S., Shane Yost, Joonho Lee, David Small,
  Daniel Levine, Susi Lehtola, Hugh Burton, Evgeny Epifanovsky,
  Bang C. Huynh
 -----------------------------------------------------------------------
 Hartree-Fock
 A restricted SCF calculation will be
 performed using DIIS
 SCF converges when DIIS error is below 1.0e-06
 ---------------------------------------
  Cycle       Energy         DIIS error
 ---------------------------------------
    1    -632.0377529288      2.90e-02  
    2    -629.3874773065      1.92e-03  
    3    -629.4571572228      6.47e-04  
    4    -629.4642542082      3.33e-04  
    5    -629.4661873981      5.97e-05  
    6    -629.4663123540      2.39e-05  
    7    -629.4663432346      1.11e-05  
    8    -629.4663521056      4.60e-06  
    9    -629.4663534187      1.65e-06  
   10    -629.4663535645      5.59e-07  Convergence criterion met
 ---------------------------------------
 SCF time:   CPU 144.97s  wall 149.00s 

************** Final PCM Free Energy Summary **************
 G_electrostatic  =      -0.00494920 hartree =      -3.10567087 kcal/mol
 G_cavitation     =       0.00000000 hartree =       0.00000000 kcal/mol
 G_dispersion     =       0.00000000 hartree =       0.00000000 kcal/mol
 G_repulsion      =       0.00000000 hartree =       0.00000000 kcal/mol
 --------------------------------------------------
 Non-electrostatic Free Energy =       0.00000000 hartree =       0.00000000 kcal/mol
 Total                         =      -0.00494920 hartree =      -3.10567087 kcal/mol
 --------------------------------------------------
 SCF Energy (H0 + V/2)                       =    -629.46635356 
 Solute Internal Energy (H0)                 =    -629.46140436 
 Total Free Energy (H0 + V/2 + non-elec)     =    -629.46635356 hartree
                                             = -394996.09853753 kcal/mol
***********************************************************

 SCF   energy in the final basis set =     -629.4663535645
 Total energy in the final basis set =     -629.4663535645


 --------------------------------------------------------------
  Generalized many-body perturbation theory program
  by Joonho Lee, Fazle Rob, Xintian Feng, Evgeny Epifanovsky

 No regularization used 
 (reg. param. = 0.0000e+00)
  (P|Q)^-1/2 Time:  CPU 0.49 s  wall 0.49 s

 In RI-MP2 calculation: 
 # of frozen core orbitals: 11

 Components of the RIMP2 correlation energy:
        aaaa    correlation energy =        -0.1441014992 a.u.
        abab    correlation energy =        -0.8827170274 a.u.
        bbbb    correlation energy =        -0.1441014992 a.u.
        non-Brillouin singles      =        -0.0000000000 a.u.
        total same-spin energy     =        -0.2882029983 a.u.
        total opposite-spin energy =        -0.8827170274 a.u.

 Total  RIMP2   correlation energy =        -1.1709200257 a.u.
        RIMP2         total energy =      -630.6372735902 a.u.

 RI-MP2 Energy Time:  CPU 11.11 s  wall 11.14 s
 
 --------------------------------------------------------------
 
                    Orbital Energies (a.u.)
 --------------------------------------------------------------
 
 Alpha MOs
 -- Occupied --
-91.9777 -11.2667 -11.2569 -11.2471 -11.2295 -11.2270 -11.2195  -8.9776
 -6.6585  -6.6580  -6.6574  -1.1591  -1.0467  -0.9941  -0.9375  -0.8804
 -0.7403  -0.7180  -0.6395  -0.5895  -0.5834  -0.5654  -0.5632  -0.5439
 -0.5071  -0.4900  -0.4777  -0.4551  -0.3375  -0.3002
 -- Virtual --
  0.1017   0.1446   0.1531   0.1758   0.1854   0.1925   0.2118   0.2281
  0.2305   0.2449   0.2522   0.2631   0.2973   0.3149   0.3474   0.3708
  0.3829   0.3947   0.3970   0.4092   0.4376   0.4495   0.4657   0.4791
  0.4869   0.5043   0.5087   0.5366   0.5379   0.5665   0.5729   0.5906
  0.5980   0.6087   0.6141   0.6206   0.6351   0.6405   0.6440   0.6493
  0.6525   0.6682   0.6787   0.6871   0.7211   0.7516   0.7691   0.7866
  0.8050   0.8247   0.8450   0.8605   0.8645   0.8896   0.9049   0.9235
  0.9551   0.9662   1.0065   1.0229   1.0416   1.0525   1.0672   1.0776
  1.0861   1.0885   1.0933   1.1272   1.1555   1.1705   1.1872   1.2101
  1.2339   1.2376   1.2570   1.2606   1.2803   1.2906   1.3217   1.3378
  1.3500   1.3708   1.3944   1.4072   1.4177   1.4460   1.4621   1.4766
  1.4853   1.4997   1.5207   1.5339   1.5489   1.5509   1.5659   1.5802
  1.5821   1.6324   1.6389   1.6757   1.6876   1.6945   1.7103   1.7420
  1.7632   1.7650   1.8054   1.8317   1.8763   1.9114   1.9184   1.9637
  2.0037   2.0378   2.0839   2.1052   2.1450   2.1847   2.2143   2.2246
  2.2621   2.2824   2.3572   2.4168   2.4297   2.4841   2.5107   2.5383
  2.5544   2.5824   2.6272   2.6391   2.6574   2.6805   2.6924   2.7227
  2.7394   2.7600   2.7878   2.7962   2.8216   2.8401   2.8490   2.8650
  2.9038   2.9409   2.9687   2.9918   3.0334   3.0389   3.0547   3.1044
  3.1115   3.1302   3.1392   3.1479   3.1586   3.1660   3.1878   3.2039
  3.2249   3.2518   3.2655   3.2779   3.2867   3.3036   3.3069   3.3355
  3.3434   3.3574   3.3753   3.3840   3.3998   3.4238   3.4306   3.4357
  3.4452   3.4748   3.4828   3.4923   3.5114   3.5262   3.5406   3.5634
  3.5841   3.5972   3.6054   3.6128   3.6260   3.6449   3.6780   3.6830
  3.6905   3.7139   3.7291   3.7438   3.7531   3.7699   3.7715   3.7842
  3.8070   3.8180   3.8240   3.8679   3.8784   3.9278   3.9442   3.9605
  3.9847   4.0048   4.0210   4.0363   4.0482   4.1066   4.1189   4.1326
  4.1466   4.1573   4.1618   4.1814   4.2186   4.2290   4.2302   4.2685
  4.2840   4.2895   4.3026   4.3410   4.3413   4.3594   4.3764   4.3811
  4.4020   4.4224   4.4320   4.4451   4.4577   4.4703   4.5042   4.5344
  4.5688   4.6182   4.6435   4.6602   4.6996   4.7092   4.7483   4.7735
  4.7916   4.8071   4.8265   4.8556   4.8697   4.9111   5.0605   5.1075
  5.1283   5.1649   5.1814   5.2291   5.2602   5.2815   5.2990   5.3307
  5.3647   5.4033   5.4415   5.4540   5.4721   5.4965   5.5417   5.5686
  5.5842   5.6001   5.6237   5.6336   5.6747   5.7105   5.7251   5.7427
  5.8287   5.9516   5.9878   6.1184   6.2257   6.2284   6.2719   6.2848
  6.3272   6.4529   9.0161  11.3140  12.8890  13.8373  14.1895  14.7939
 --------------------------------------------------------------
 
          Ground-State Mulliken Net Atomic Charges

     Atom                 Charge (a.u.)
  ----------------------------------------
      1 C                     0.018171
      2 C                    -0.280597
      3 C                     0.045809
      4 H                     0.179001
      5 C                    -0.259742
      6 S                    -0.004988
      7 C                    -0.271637
      8 H                     0.101626
      9 H                     0.106669
     10 H                     0.106865
     11 C                    -0.282066
     12 H                     0.119252
     13 H                     0.115737
     14 H                     0.111776
     15 H                     0.194125
  ----------------------------------------
  Sum of atomic charges =     0.000000

 -----------------------------------------------------------------
                    Cartesian Multipole Moments
 -----------------------------------------------------------------
    Charge (ESU x 10^10)
                -0.0000
    Dipole Moment (Debye)
         X      -0.5295      Y      -0.0099      Z      -1.5153
       Tot       1.6052
    Quadrupole Moments (Debye-Ang)
        XX     -53.6554     XY      -0.6668     YY     -43.0071
        XZ       0.0139     YZ       0.2559     ZZ     -48.4662
    Octopole Moments (Debye-Ang^2)
       XXX       4.1505    XXY      32.4957    XYY       1.5730
       YYY      76.0082    XXZ       2.5808    XYZ       0.0691
       YYZ       5.2666    XZZ       2.4480    YZZ      26.1119
       ZZZ       0.4704
    Hexadecapole Moments (Debye-Ang^3)
      XXXX     -87.0847   XXXY      24.2723   XXYY    -158.4554
      XYYY      26.4450   YYYY    -802.0872   XXXZ       0.4703
      XXYZ     -31.0333   XYYZ       0.2875   YYYZ    -107.4824
      XXZZ    -105.1917   XYZZ       9.4721   YYZZ    -209.3342
      XZZZ      -0.0698   YZZZ    -102.9558   ZZZZ    -491.3533
 -----------------------------------------------------------------
 Total job time:  166.35s(wall), 156.43s(cpu) 
 Thu Jul  7 11:10:30 2022

        *************************************************************
        *                                                           *
        *  Thank you very much for using Q-Chem.  Have a nice day.  *
        *                                                           *
        *************************************************************


remove work dirs ./qchem3159216.0 -- ./qchem3159216.-1
rm -rf ./qchem3159216
