You are running Q-Chem version: 5.4.0

#
# job setting
#
local host:  exp-7-21
current dir: /expanse/lustre/scratch/theleonzhang/temp_project/Improper_Bend_Test
input file:  Methylthiophene_Improper_Bend_Methyl_Phi_40.qcin
output file: 
nprocs     : 0
nthreads   : 1
#
# qchem installation setting
#
QC:          /cm/shared/apps/spack/cpu/opt/spack/linux-centos8-zen2/gcc-10.2.0/qchem-5.4-akfmr7b3t57bfs6qan3padb2wnb2i7cl
QCAUX:       /cm/shared/apps/spack/cpu/opt/spack/linux-centos8-zen2/gcc-10.2.0/qchem-5.4-akfmr7b3t57bfs6qan3padb2wnb2i7cl/qcaux
QCPROG:      /cm/shared/apps/spack/cpu/opt/spack/linux-centos8-zen2/gcc-10.2.0/qchem-5.4-akfmr7b3t57bfs6qan3padb2wnb2i7cl/exe/qcprog.exe_s
QCPROG_S:    /cm/shared/apps/spack/cpu/opt/spack/linux-centos8-zen2/gcc-10.2.0/qchem-5.4-akfmr7b3t57bfs6qan3padb2wnb2i7cl/exe/qcprog.exe_s
PARALLEL:    -DSERIAL
QCMPI:       mpich
#
# qchem directory setting
#
qcrun:       qchem3160688
QCSCRATCH:   .
QCLOCALSCR:  
QCTMPDIR:    .
QCFILEPREF:  ./qchem3160688
QCSAVEDIR:   
workdirs:    ./qchem3160688
workdir0:    ./qchem3160688
partmpdirs =  
#
# parallel setting
#
QCRSH:           ssh
QCMPI:           mpich
QCMPIRUN:        /cm/shared/apps/spack/cpu/opt/spack/linux-centos8-zen2/gcc-10.2.0/qchem-5.4-akfmr7b3t57bfs6qan3padb2wnb2i7cl/bin/mpi/mpirun_qchem
QCMACHINEFILE:   ./qchem3160688/hostfile

#
# env setting
#
exported envs:   QC QCAUX QCSCRATCH QCRUNNAME QCFILEPREF QCPROG QCPROG_S GUIFILE

Running Job 1 of 1 Methylthiophene_Improper_Bend_Methyl_Phi_40.qcin
qchem Methylthiophene_Improper_Bend_Methyl_Phi_40.qcin_3160688.0 ./qchem3160688/ 0
/cm/shared/apps/spack/cpu/opt/spack/linux-centos8-zen2/gcc-10.2.0/qchem-5.4-akfmr7b3t57bfs6qan3padb2wnb2i7cl/exe/qcprog.exe_s Methylthiophene_Improper_Bend_Methyl_Phi_40.qcin_3160688.0 ./qchem3160688/
                  Welcome to Q-Chem
     A Quantum Leap Into The Future Of Chemistry


 Q-Chem 5.4, Q-Chem, Inc., Pleasanton, CA (2021)

 License issued to: University of California, San Diego (site)

 E. Epifanovsky,  A. T. B. Gilbert,  Xintian Feng,  Joonho Lee,  Yuezhi Mao,  
 N. Mardirossian,  P. Pokhilko,  A. White,  M. Wormit,  M. P. Coons,  
 A. L. Dempwolff,  Zhengting Gan,  D. Hait,  P. R. Horn,  L. D. Jacobson,  
 I. Kaliman,  J. Kussmann,  A. W. Lange,  Ka Un Lao,  D. S. Levine,  Jie Liu,  
 S. C. McKenzie,  A. F. Morrison,  K. Nanda,  F. Plasser,  D. R. Rehn,  
 M. L. Vidal,  Zhi-Qiang You,  Ying Zhu,  B. Alam,  B. Albrecht,  
 A. Aldossary,  E. Alguire,  J. H. Andersen,  D. Barton,  K. Begam,  A. Behn,  
 Y. A. Bernard,  E. J. Berquist,  H. Burton,  A. Carreras,  K. Carter-Fenk,  
 R. Chakraborty,  A. D. Chien,  K. D. Closser,  V. Cofer-Shabica,  
 S. Dasgupta,  Jia Deng,  M. de Wergifosse,  M. Diedenhofen,  Hainam Do,  
 S. Ehlert,  Po-Tung Fang,  S. Fatehi,  Qingguo Feng,  J. Gayvert,  
 Qinghui Ge,  G. Gidofalvi,  M. Goldey,  J. Gomes,  C. Gonzalez-Espinoza,  
 S. Gulania,  A. Gunina,  M. W. D. Hanson-Heine,  P. H. P. Harbach,  
 A. W. Hauser,  M. F. Herbst,  M. Hernandez Vera,  M. Hodecker,  
 Z. C. Holden,  S. Houck,  Xunkun Huang,  Kerwin Hui,  B. C. Huynh,  
 M. Ivanov,  Hyunjun Ji,  Hanjie Jiang,  B. Kaduk,  S. Kaehler,  
 K. Khistyaev,  Jaehoon Kim,  P. Klunzinger,  Z. Koczor-Benda,  
 Joong Hoon Koh,  D. Kosenkov,  L. Koulias,  T. Kowalczyk,  C. M. Krauter,  
 K. Kue,  A. Kunitsa,  T. Kus,  A. Landau,  K. V. Lawler,  D. Lefrancois,  
 S. Lehtola,  Rain Li,  Yi-Pei Li,  Jiashu Liang,  M. Liebenthal,  
 Hung-Hsuan Lin,  You-Sheng Lin,  Fenglai Liu,  Kuan-Yu Liu,  
 M. Loipersberger,  A. Luenser,  A. Manjanath,  P. Manohar,  E. Mansoor,  
 S. F. Manzer,  Shan-Ping Mao,  A. V. Marenich,  T. Markovich,  S. Mason,  
 S. A. Maurer,  P. F. McLaughlin,  M. F. S. J. Menger,  J.-M. Mewes,  
 S. A. Mewes,  P. Morgante,  J. W. Mullinax,  T. S. Nguyen-Beck,  
 K. J. Oosterbaan,  G. Paran,  Alexander C. Paul,  Suranjan K. Paul,  
 F. Pavosevic,  Zheng Pei,  S. Prager,  E. I. Proynov,  E. Ramos,  B. Rana,  
 A. E. Rask,  A. Rettig,  R. M. Richard,  F. Rob,  E. Rossomme,  T. Scheele,  
 M. Scheurer,  M. Schneider,  N. Sergueev,  S. M. Sharada,  W. Skomorowski,  
 D. W. Small,  C. J. Stein,  Yu-Chuan Su,  E. J. Sundstrom,  Zhen Tao,  
 J. Thirman,  T. Tsuchimochi,  N. M. Tubman,  S. P. Veccham,  O. Vydrov,  
 J. Wenzel,  J. Witte,  A. Yamada,  Kun Yao,  S. Yeganeh,  S. R. Yost,  
 A. Zech,  Igor Ying Zhang,  Xing Zhang,  Yu Zhang,  D. Zuev,  
 A. Aspuru-Guzik,  A. T. Bell,  N. A. Besley,  K. B. Bravaya,  B. R. Brooks,  
 D. Casanova,  Jeng-Da Chai,  S. Coriani,  C. J. Cramer,  
 A. E. DePrince, III,  R. A. DiStasio Jr.,  A. Dreuw,  B. D. Dunietz,  
 T. R. Furlani,  W. A. Goddard III,  S. Grimme,  S. Hammes-Schiffer,  
 T. Head-Gordon,  W. J. Hehre,  Chao-Ping Hsu,  T.-C. Jagau,  Yousung Jung,  
 A. Klamt,  Jing Kong,  D. S. Lambrecht,  WanZhen Liang,  N. J. Mayhall,  
 C. W. McCurdy,  J. B. Neaton,  C. Ochsenfeld,  J. A. Parkhill,  R. Peverati,  
 V. A. Rassolov,  Yihan Shao,  L. V. Slipchenko,  T. Stauch,  R. P. Steele,  
 J. E. Subotnik,  A. J. W. Thom,  A. Tkatchenko,  D. G. Truhlar,  
 T. Van Voorhis,  T. A. Wesolowski,  K. B. Whaley,  H. L. Woodcock III,  
 P. M. Zimmerman,  S. Faraji,  P. M. W. Gill,  M. Head-Gordon,  
 J. M. Herbert,  A. I. Krylov

 Contributors to earlier versions of Q-Chem not listed above: 
 R. D. Adamson,  B. Austin,  R. Baer,  J. Baker,  G. J. O. Beran,  
 K. Brandhorst,  S. T. Brown,  E. F. C. Byrd,  A. K. Chakraborty,  
 G. K. L. Chan,  Chun-Min Chang,  Yunqing Chen,  C.-L. Cheng,  
 Siu Hung Chien,  D. M. Chipman,  D. L. Crittenden,  H. Dachsel,  
 R. J. Doerksen,  A. D. Dutoi,  R. G. Edgar,  J. Fosso-Tande,  
 L. Fusti-Molnar,  D. Ghosh,  A. Ghysels,  A. Golubeva-Zadorozhnaya,  
 J. Gonthier,  M. S. Gordon,  S. R. Gwaltney,  G. Hawkins,  J. E. Herr,  
 A. Heyden,  S. Hirata,  E. G. Hohenstein,  G. Kedziora,  F. J. Keil,  
 C. Kelley,  Jihan Kim,  R. A. King,  R. Z. Khaliullin,  P. P. Korambath,  
 W. Kurlancheek,  A. Laurent,  A. M. Lee,  M. S. Lee,  S. V. Levchenko,  
 Ching Yeh Lin,  D. Liotard,  E. Livshits,  R. C. Lochan,  I. Lotan,  
 L. A. Martinez-Martinez,  P. E. Maslen,  N. Nair,  D. P. O'Neill,  
 D. Neuhauser,  E. Neuscamman,  C. M. Oana,  R. Olivares-Amaya,  R. Olson,  
 T. M. Perrine,  B. Peters,  P. A. Pieniazek,  A. Prociuk,  Y. M. Rhee,  
 J. Ritchie,  M. A. Rohrdanz,  E. Rosta,  N. J. Russ,  H. F. Schaefer III,  
 M. W. Schmidt,  N. E. Schultz,  S. Sharma,  N. Shenvi,  C. D. Sherrill,  
 A. C. Simmonett,  A. Sodt,  T. Stein,  D. Stuck,  K. S. Thanthiriwatte,  
 V. Vanovschi,  L. Vogt,  Tao Wang,  A. Warshel,  M. A. Watson,  
 C. F. Williams,  Q. Wu,  X. Xu,  Jun Yang,  W. Zhang,  Yan Zhao

 Please cite Q-Chem as follows:
 Y. Shao et al., Mol. Phys. 113, 184-215 (2015)
 DOI: 10.1080/00268976.2014.952696

 Q-Chem 5.4.0 for Intel X86 EM64T Linux

 Parts of Q-Chem use Armadillo 9.800.1 (Horizon Scraper).
 http://arma.sourceforge.net/

 Q-Chem begins on Thu Jul  7 11:13:12 2022  

 Host: 
0

     Scratch files written to ./qchem3160688//
 May1621 |scratch|qcdevops|jenkins|workspace|build_RNUM    
 Processing $rem in /cm/shared/apps/spack/cpu/opt/spack/linux-centos8-zen2/gcc-10.2.0/qchem-5.4-akfmr7b3t57bfs6qan3padb2wnb2i7cl/config/preferences:
 Processing $rem in /home/theleonzhang/.qchemrc:
 Symmetry turned off for PCM/SM12/SMD calculation
 Core orbitals will be frozen

 Checking the input file for inconsistencies... 	...done.

--------------------------------------------------------------
User input:
--------------------------------------------------------------
$molecule
0 1
C	0.065766	0.600619	-0.001077
C	0.065719	-0.243727	-1.114298
C	0.066025	-1.634775	-0.822186
H	0.065663	0.144615	-2.144066
C	0.066262	-1.883255	0.561921
S	0.065562	-0.370343	1.463440
C	0.066267	-2.699134	-1.884241
H	0.066090	-2.250943	-2.896729
H	-0.825971	-3.355405	-1.810154
H	0.958884	-3.354901	-1.810248
C	-0.866363	1.711487	-0.001077
H	-1.887523	1.359873	-0.001077
H	-0.728957	2.332026	-0.874262
H	-0.728957	2.332026	0.872108
H	0.066404	-2.841414	1.095219
$end

$rem
JOBTYPE		SP
EXCHANGE	HF
CORRELATION	pRIMP2
BASIS		cc-pvtz
METHOD		rimp2
AUX_BASIS	rimp2-cc-pvtz
SOLVENT_METHOD	PCM
PURECART	11111
SYMMETRY	false
MEM_TOTAL	110000
SCF_CONVERGENCE = 6
THRESH=10
$end



$solvent
dielectric 4.90
$end
--------------------------------------------------------------
 ----------------------------------------------------------------
             Standard Nuclear Orientation (Angstroms)
    I     Atom           X                Y                Z
 ----------------------------------------------------------------
    1      C       0.0657660000     0.6006190000    -0.0010770000
    2      C       0.0657190000    -0.2437270000    -1.1142980000
    3      C       0.0660250000    -1.6347750000    -0.8221860000
    4      H       0.0656630000     0.1446150000    -2.1440660000
    5      C       0.0662620000    -1.8832550000     0.5619210000
    6      S       0.0655620000    -0.3703430000     1.4634400000
    7      C       0.0662670000    -2.6991340000    -1.8842410000
    8      H       0.0660900000    -2.2509430000    -2.8967290000
    9      H      -0.8259710000    -3.3554050000    -1.8101540000
   10      H       0.9588840000    -3.3549010000    -1.8102480000
   11      C      -0.8663630000     1.7114870000    -0.0010770000
   12      H      -1.8875230000     1.3598730000    -0.0010770000
   13      H      -0.7289570000     2.3320260000    -0.8742620000
   14      H      -0.7289570000     2.3320260000     0.8721080000
   15      H       0.0664040000    -2.8414140000     1.0952190000
 ----------------------------------------------------------------
 Nuclear Repulsion Energy =         346.91349028 hartrees
 There are       30 alpha and       30 beta electrons

 Q-Chem warning in module forms1/BasisType.C, line 2236:

 You are not using the predefined 5D/6D in this basis set.

 Requested basis set is cc-pVTZ
 There are 120 shells and 326 basis functions

 Total QAlloc Memory Limit 110000 MB
 Mega-Array Size       188 MB
 MEM_STATIC part       192 MB
 Discretize the solute cavity surface with Lebedev spheres
	Using 110 Lebedev grid points for each H atom
	Using 194 Lebedev grid points for other atoms
	Atomic van der Waals radii will be scaled by 1.20
 Remove points where switching function is < 1.0e-08
 Keep 1061 surface tesserae and discard 1177 interior tesserae
 Molecular Surface Area = 158.815 Angst**2

                       Distance Matrix (Angstroms)
             C (  1)   C (  2)   C (  3)   H (  4)   C (  5)   S (  6)
   C (  2)  1.397205
   C (  3)  2.381429  1.421388
   H (  4)  2.190968  1.100560  2.216663
   C (  5)  2.546880  2.344731  1.406234  3.381512
   S (  6)  1.757150  2.580846  2.612063  3.644075  1.761147
   C (  7)  3.799300  2.573293  1.503603  2.855594  2.578637  4.078019
   H (  8)  4.064014  2.684395  2.164115  2.511016  3.478139  4.748445
   H (  9)  4.440505  3.310871  2.175386  3.627209  2.930878  4.519053
   H ( 10)  4.440371  3.310815  2.175384  3.627105  2.930819  4.519142
   C ( 11)  1.450135  2.435344  3.569459  2.813568  3.756185  2.710592
   H ( 12)  2.095663  2.761512  3.668581  3.143913  3.827809  2.992156
   H ( 13)  2.095664  2.706221  4.046013  2.651149  4.523670  3.660452
   H ( 14)  2.095664  3.348406  4.386130  3.809658  4.300835  2.878147
   H ( 15)  3.612403  3.410270  2.265484  4.405603  1.096574  2.498355
             C (  7)   H (  8)   H (  9)   H ( 10)   C ( 11)   H ( 12)
   H (  8)  1.107252
   H (  9)  1.110076  1.787807
   H ( 10)  1.110077  1.787805  1.784855
   C ( 11)  4.885661  4.995510  5.380315  5.680925
   H ( 12)  4.882534  5.023883  5.160765  5.796915  1.080000
   H ( 13)  5.192784  5.072088  5.764736  6.005499  1.080001  1.746370
   H ( 14)  5.791581  5.986638  6.288944  6.510375  1.080001  1.746370
   H ( 15)  2.982855  4.035382  3.082485  3.082520  4.775021  4.761356
             H ( 13)   H ( 14)
   H ( 14)  1.746370
   H ( 15)  5.592489  5.238975
 
 Requested basis set is rimp2-cc-pVTZ
 There are 250 shells and 848 basis functions
 A cutoff of  1.0D-10 yielded   6245 shell pairs
 There are     45899 function pairs (     59071 Cartesian)
 Smallest overlap matrix eigenvalue = 1.29E-04

 Scale SEOQF with 1.000000e-01/1.000000e-01/1.000000e-01

 Standard Electronic Orientation quadrupole field applied
 Nucleus-field energy     =     0.0000000015 hartrees
 Guess from superposition of atomic densities
 Warning:  Energy on first SCF cycle will be non-variational
 SAD guess density has 60.000000 electrons

 -----------------------------------------------------------------------
  General SCF calculation program by
  Eric Jon Sundstrom, Paul Horn, Yuezhi Mao, Dmitri Zuev, Alec White,
  David Stuck, Shaama M.S., Shane Yost, Joonho Lee, David Small,
  Daniel Levine, Susi Lehtola, Hugh Burton, Evgeny Epifanovsky,
  Bang C. Huynh
 -----------------------------------------------------------------------
 Hartree-Fock
 A restricted SCF calculation will be
 performed using DIIS
 SCF converges when DIIS error is below 1.0e-06
 ---------------------------------------
  Cycle       Energy         DIIS error
 ---------------------------------------
    1    -632.0692712999      2.91e-02  
    2    -629.3648193261      1.91e-03  
    3    -629.4344343749      6.33e-04  
    4    -629.4414914349      3.21e-04  
    5    -629.4433247001      5.96e-05  
    6    -629.4434557993      2.40e-05  
    7    -629.4434899796      1.13e-05  
    8    -629.4435002727      3.89e-06  
    9    -629.4435016029      1.33e-06  
   10    -629.4435016922      5.28e-07  Convergence criterion met
 ---------------------------------------
 SCF time:   CPU 148.82s  wall 150.00s 

************** Final PCM Free Energy Summary **************
 G_electrostatic  =      -0.00489489 hartree =      -3.07159178 kcal/mol
 G_cavitation     =       0.00000000 hartree =       0.00000000 kcal/mol
 G_dispersion     =       0.00000000 hartree =       0.00000000 kcal/mol
 G_repulsion      =       0.00000000 hartree =       0.00000000 kcal/mol
 --------------------------------------------------
 Non-electrostatic Free Energy =       0.00000000 hartree =       0.00000000 kcal/mol
 Total                         =      -0.00489489 hartree =      -3.07159178 kcal/mol
 --------------------------------------------------
 SCF Energy (H0 + V/2)                       =    -629.44350169 
 Solute Internal Energy (H0)                 =    -629.43860680 
 Total Free Energy (H0 + V/2 + non-elec)     =    -629.44350169 hartree
                                             = -394981.75877124 kcal/mol
***********************************************************

 SCF   energy in the final basis set =     -629.4435016922
 Total energy in the final basis set =     -629.4435016922


 --------------------------------------------------------------
  Generalized many-body perturbation theory program
  by Joonho Lee, Fazle Rob, Xintian Feng, Evgeny Epifanovsky

 No regularization used 
 (reg. param. = 0.0000e+00)
  (P|Q)^-1/2 Time:  CPU 0.48 s  wall 0.49 s

 In RI-MP2 calculation: 
 # of frozen core orbitals: 11

 Components of the RIMP2 correlation energy:
        aaaa    correlation energy =        -0.1450025736 a.u.
        abab    correlation energy =        -0.8862154977 a.u.
        bbbb    correlation energy =        -0.1450025736 a.u.
        non-Brillouin singles      =        -0.0000000000 a.u.
        total same-spin energy     =        -0.2900051471 a.u.
        total opposite-spin energy =        -0.8862154977 a.u.

 Total  RIMP2   correlation energy =        -1.1762206448 a.u.
        RIMP2         total energy =      -630.6197223370 a.u.

 RI-MP2 Energy Time:  CPU 11.18 s  wall 11.22 s
 
 --------------------------------------------------------------
 
                    Orbital Energies (a.u.)
 --------------------------------------------------------------
 
 Alpha MOs
 -- Occupied --
-91.9760 -11.2657 -11.2559 -11.2480 -11.2364 -11.2278 -11.2166  -8.9762
 -6.6571  -6.6565  -6.6560  -1.1630  -1.0476  -0.9941  -0.9358  -0.8793
 -0.7425  -0.7210  -0.6385  -0.5894  -0.5828  -0.5663  -0.5627  -0.5432
 -0.5112  -0.4895  -0.4652  -0.4538  -0.3372  -0.3007
 -- Virtual --
  0.0842   0.1439   0.1564   0.1758   0.1833   0.1921   0.2124   0.2265
  0.2291   0.2450   0.2530   0.2631   0.2990   0.3060   0.3467   0.3675
  0.3816   0.3904   0.4063   0.4184   0.4265   0.4562   0.4631   0.4719
  0.4732   0.4942   0.5114   0.5376   0.5460   0.5658   0.5740   0.5773
  0.5916   0.6064   0.6128   0.6258   0.6335   0.6387   0.6399   0.6454
  0.6504   0.6665   0.6825   0.6880   0.7246   0.7462   0.7684   0.7793
  0.7924   0.8136   0.8391   0.8529   0.8635   0.8836   0.8913   0.9375
  0.9580   0.9898   1.0142   1.0157   1.0345   1.0575   1.0617   1.0793
  1.0859   1.0968   1.1111   1.1346   1.1541   1.1774   1.1943   1.2086
  1.2313   1.2404   1.2530   1.2620   1.2833   1.3000   1.3128   1.3282
  1.3593   1.3855   1.3914   1.4082   1.4191   1.4456   1.4681   1.4754
  1.4864   1.5001   1.5142   1.5287   1.5405   1.5471   1.5570   1.5794
  1.5840   1.6141   1.6337   1.6644   1.6942   1.7020   1.7066   1.7488
  1.7511   1.7835   1.8039   1.8270   1.8756   1.8910   1.9309   1.9639
  1.9873   2.0396   2.0499   2.1187   2.1433   2.1824   2.2084   2.2216
  2.2568   2.2716   2.3447   2.4034   2.4180   2.4751   2.4982   2.5373
  2.5541   2.6001   2.6111   2.6473   2.6690   2.6795   2.6821   2.7226
  2.7576   2.7740   2.7920   2.8007   2.8219   2.8354   2.8625   2.8920
  2.9196   2.9500   2.9664   3.0121   3.0300   3.0393   3.0542   3.0921
  3.1114   3.1271   3.1463   3.1555   3.1629   3.1746   3.1800   3.1904
  3.2259   3.2368   3.2531   3.2629   3.2833   3.2972   3.3137   3.3316
  3.3355   3.3550   3.3608   3.3889   3.4047   3.4131   3.4331   3.4407
  3.4533   3.4616   3.4685   3.5041   3.5244   3.5293   3.5415   3.5665
  3.5757   3.5864   3.6061   3.6240   3.6399   3.6534   3.6731   3.6965
  3.7080   3.7110   3.7342   3.7413   3.7570   3.7786   3.7909   3.8105
  3.8190   3.8241   3.8517   3.8726   3.8868   3.9253   3.9360   3.9629
  3.9958   4.0277   4.0335   4.0420   4.0565   4.0985   4.1216   4.1353
  4.1395   4.1689   4.1850   4.1966   4.2195   4.2286   4.2431   4.2620
  4.2887   4.2955   4.3035   4.3385   4.3423   4.3632   4.3719   4.3936
  4.4042   4.4387   4.4503   4.4569   4.4660   4.4797   4.5171   4.5371
  4.5782   4.6089   4.6569   4.6613   4.6961   4.7057   4.7360   4.7465
  4.8023   4.8062   4.8134   4.8573   4.8745   4.9195   5.0269   5.1006
  5.1271   5.1506   5.1869   5.2238   5.2631   5.2745   5.3031   5.3170
  5.3722   5.4043   5.4207   5.4670   5.4814   5.4949   5.5559   5.5627
  5.5951   5.6058   5.6247   5.6516   5.6652   5.7027   5.7282   5.7437
  5.8217   5.9220   5.9628   6.0964   6.2244   6.2281   6.2695   6.2763
  6.3245   6.3877   9.0315  11.3798  12.8331  13.7709  14.1895  14.7693
 --------------------------------------------------------------
 
          Ground-State Mulliken Net Atomic Charges

     Atom                 Charge (a.u.)
  ----------------------------------------
      1 C                    -0.032142
      2 C                    -0.231244
      3 C                     0.031785
      4 H                     0.179836
      5 C                    -0.235603
      6 S                    -0.001492
      7 C                    -0.269446
      8 H                     0.101929
      9 H                     0.105771
     10 H                     0.106881
     11 C                    -0.286251
     12 H                     0.117479
     13 H                     0.109599
     14 H                     0.107824
     15 H                     0.195073
  ----------------------------------------
  Sum of atomic charges =     0.000000

 -----------------------------------------------------------------
                    Cartesian Multipole Moments
 -----------------------------------------------------------------
    Charge (ESU x 10^10)
                -0.0000
    Dipole Moment (Debye)
         X      -0.9008      Y      -0.8210      Z      -1.6360
       Tot       2.0401
    Quadrupole Moments (Debye-Ang)
        XX     -53.4975     XY      -0.9739     YY     -43.8296
        XZ       0.0062     YZ       0.0752     ZZ     -48.2314
    Octopole Moments (Debye-Ang^2)
       XXX       9.2329    XXY      32.3164    XYY       3.4826
       YYY      75.1104    XXZ       2.4419    XYZ       0.1434
       YYZ       5.7953    XZZ       4.0788    YZZ      27.0700
       ZZZ      -0.2032
    Hexadecapole Moments (Debye-Ang^3)
      XXXX    -114.7361   XXXY      44.4320   XXYY    -156.1675
      XYYY      44.4265   YYYY    -754.9743   XXXZ       0.7903
      XXYZ     -31.1856   XYYZ       0.6140   YYYZ    -108.6405
      XXZZ    -109.6574   XYZZ      14.5165   YYZZ    -201.1831
      XZZZ      -0.3410   YZZZ    -102.6995   ZZZZ    -490.0683
 -----------------------------------------------------------------
 Total job time:  164.66s(wall), 160.35s(cpu) 
 Thu Jul  7 11:15:56 2022

        *************************************************************
        *                                                           *
        *  Thank you very much for using Q-Chem.  Have a nice day.  *
        *                                                           *
        *************************************************************


remove work dirs ./qchem3160688.0 -- ./qchem3160688.-1
rm -rf ./qchem3160688
