You are running Q-Chem version: 5.4.0

#
# job setting
#
local host:  exp-7-21
current dir: /expanse/lustre/scratch/theleonzhang/temp_project/Improper_Bend_Test
input file:  Methylthiophene_Improper_Bend_Methyl_Phi_0.qcin
output file: 
nprocs     : 0
nthreads   : 1
#
# qchem installation setting
#
QC:          /cm/shared/apps/spack/cpu/opt/spack/linux-centos8-zen2/gcc-10.2.0/qchem-5.4-akfmr7b3t57bfs6qan3padb2wnb2i7cl
QCAUX:       /cm/shared/apps/spack/cpu/opt/spack/linux-centos8-zen2/gcc-10.2.0/qchem-5.4-akfmr7b3t57bfs6qan3padb2wnb2i7cl/qcaux
QCPROG:      /cm/shared/apps/spack/cpu/opt/spack/linux-centos8-zen2/gcc-10.2.0/qchem-5.4-akfmr7b3t57bfs6qan3padb2wnb2i7cl/exe/qcprog.exe_s
QCPROG_S:    /cm/shared/apps/spack/cpu/opt/spack/linux-centos8-zen2/gcc-10.2.0/qchem-5.4-akfmr7b3t57bfs6qan3padb2wnb2i7cl/exe/qcprog.exe_s
PARALLEL:    -DSERIAL
QCMPI:       mpich
#
# qchem directory setting
#
qcrun:       qchem3157164
QCSCRATCH:   .
QCLOCALSCR:  
QCTMPDIR:    .
QCFILEPREF:  ./qchem3157164
QCSAVEDIR:   
workdirs:    ./qchem3157164
workdir0:    ./qchem3157164
partmpdirs =  
#
# parallel setting
#
QCRSH:           ssh
QCMPI:           mpich
QCMPIRUN:        /cm/shared/apps/spack/cpu/opt/spack/linux-centos8-zen2/gcc-10.2.0/qchem-5.4-akfmr7b3t57bfs6qan3padb2wnb2i7cl/bin/mpi/mpirun_qchem
QCMACHINEFILE:   ./qchem3157164/hostfile

#
# env setting
#
exported envs:   QC QCAUX QCSCRATCH QCRUNNAME QCFILEPREF QCPROG QCPROG_S GUIFILE

Running Job 1 of 1 Methylthiophene_Improper_Bend_Methyl_Phi_0.qcin
qchem Methylthiophene_Improper_Bend_Methyl_Phi_0.qcin_3157164.0 ./qchem3157164/ 0
/cm/shared/apps/spack/cpu/opt/spack/linux-centos8-zen2/gcc-10.2.0/qchem-5.4-akfmr7b3t57bfs6qan3padb2wnb2i7cl/exe/qcprog.exe_s Methylthiophene_Improper_Bend_Methyl_Phi_0.qcin_3157164.0 ./qchem3157164/
                  Welcome to Q-Chem
     A Quantum Leap Into The Future Of Chemistry


 Q-Chem 5.4, Q-Chem, Inc., Pleasanton, CA (2021)

 License issued to: University of California, San Diego (site)

 E. Epifanovsky,  A. T. B. Gilbert,  Xintian Feng,  Joonho Lee,  Yuezhi Mao,  
 N. Mardirossian,  P. Pokhilko,  A. White,  M. Wormit,  M. P. Coons,  
 A. L. Dempwolff,  Zhengting Gan,  D. Hait,  P. R. Horn,  L. D. Jacobson,  
 I. Kaliman,  J. Kussmann,  A. W. Lange,  Ka Un Lao,  D. S. Levine,  Jie Liu,  
 S. C. McKenzie,  A. F. Morrison,  K. Nanda,  F. Plasser,  D. R. Rehn,  
 M. L. Vidal,  Zhi-Qiang You,  Ying Zhu,  B. Alam,  B. Albrecht,  
 A. Aldossary,  E. Alguire,  J. H. Andersen,  D. Barton,  K. Begam,  A. Behn,  
 Y. A. Bernard,  E. J. Berquist,  H. Burton,  A. Carreras,  K. Carter-Fenk,  
 R. Chakraborty,  A. D. Chien,  K. D. Closser,  V. Cofer-Shabica,  
 S. Dasgupta,  Jia Deng,  M. de Wergifosse,  M. Diedenhofen,  Hainam Do,  
 S. Ehlert,  Po-Tung Fang,  S. Fatehi,  Qingguo Feng,  J. Gayvert,  
 Qinghui Ge,  G. Gidofalvi,  M. Goldey,  J. Gomes,  C. Gonzalez-Espinoza,  
 S. Gulania,  A. Gunina,  M. W. D. Hanson-Heine,  P. H. P. Harbach,  
 A. W. Hauser,  M. F. Herbst,  M. Hernandez Vera,  M. Hodecker,  
 Z. C. Holden,  S. Houck,  Xunkun Huang,  Kerwin Hui,  B. C. Huynh,  
 M. Ivanov,  Hyunjun Ji,  Hanjie Jiang,  B. Kaduk,  S. Kaehler,  
 K. Khistyaev,  Jaehoon Kim,  P. Klunzinger,  Z. Koczor-Benda,  
 Joong Hoon Koh,  D. Kosenkov,  L. Koulias,  T. Kowalczyk,  C. M. Krauter,  
 K. Kue,  A. Kunitsa,  T. Kus,  A. Landau,  K. V. Lawler,  D. Lefrancois,  
 S. Lehtola,  Rain Li,  Yi-Pei Li,  Jiashu Liang,  M. Liebenthal,  
 Hung-Hsuan Lin,  You-Sheng Lin,  Fenglai Liu,  Kuan-Yu Liu,  
 M. Loipersberger,  A. Luenser,  A. Manjanath,  P. Manohar,  E. Mansoor,  
 S. F. Manzer,  Shan-Ping Mao,  A. V. Marenich,  T. Markovich,  S. Mason,  
 S. A. Maurer,  P. F. McLaughlin,  M. F. S. J. Menger,  J.-M. Mewes,  
 S. A. Mewes,  P. Morgante,  J. W. Mullinax,  T. S. Nguyen-Beck,  
 K. J. Oosterbaan,  G. Paran,  Alexander C. Paul,  Suranjan K. Paul,  
 F. Pavosevic,  Zheng Pei,  S. Prager,  E. I. Proynov,  E. Ramos,  B. Rana,  
 A. E. Rask,  A. Rettig,  R. M. Richard,  F. Rob,  E. Rossomme,  T. Scheele,  
 M. Scheurer,  M. Schneider,  N. Sergueev,  S. M. Sharada,  W. Skomorowski,  
 D. W. Small,  C. J. Stein,  Yu-Chuan Su,  E. J. Sundstrom,  Zhen Tao,  
 J. Thirman,  T. Tsuchimochi,  N. M. Tubman,  S. P. Veccham,  O. Vydrov,  
 J. Wenzel,  J. Witte,  A. Yamada,  Kun Yao,  S. Yeganeh,  S. R. Yost,  
 A. Zech,  Igor Ying Zhang,  Xing Zhang,  Yu Zhang,  D. Zuev,  
 A. Aspuru-Guzik,  A. T. Bell,  N. A. Besley,  K. B. Bravaya,  B. R. Brooks,  
 D. Casanova,  Jeng-Da Chai,  S. Coriani,  C. J. Cramer,  
 A. E. DePrince, III,  R. A. DiStasio Jr.,  A. Dreuw,  B. D. Dunietz,  
 T. R. Furlani,  W. A. Goddard III,  S. Grimme,  S. Hammes-Schiffer,  
 T. Head-Gordon,  W. J. Hehre,  Chao-Ping Hsu,  T.-C. Jagau,  Yousung Jung,  
 A. Klamt,  Jing Kong,  D. S. Lambrecht,  WanZhen Liang,  N. J. Mayhall,  
 C. W. McCurdy,  J. B. Neaton,  C. Ochsenfeld,  J. A. Parkhill,  R. Peverati,  
 V. A. Rassolov,  Yihan Shao,  L. V. Slipchenko,  T. Stauch,  R. P. Steele,  
 J. E. Subotnik,  A. J. W. Thom,  A. Tkatchenko,  D. G. Truhlar,  
 T. Van Voorhis,  T. A. Wesolowski,  K. B. Whaley,  H. L. Woodcock III,  
 P. M. Zimmerman,  S. Faraji,  P. M. W. Gill,  M. Head-Gordon,  
 J. M. Herbert,  A. I. Krylov

 Contributors to earlier versions of Q-Chem not listed above: 
 R. D. Adamson,  B. Austin,  R. Baer,  J. Baker,  G. J. O. Beran,  
 K. Brandhorst,  S. T. Brown,  E. F. C. Byrd,  A. K. Chakraborty,  
 G. K. L. Chan,  Chun-Min Chang,  Yunqing Chen,  C.-L. Cheng,  
 Siu Hung Chien,  D. M. Chipman,  D. L. Crittenden,  H. Dachsel,  
 R. J. Doerksen,  A. D. Dutoi,  R. G. Edgar,  J. Fosso-Tande,  
 L. Fusti-Molnar,  D. Ghosh,  A. Ghysels,  A. Golubeva-Zadorozhnaya,  
 J. Gonthier,  M. S. Gordon,  S. R. Gwaltney,  G. Hawkins,  J. E. Herr,  
 A. Heyden,  S. Hirata,  E. G. Hohenstein,  G. Kedziora,  F. J. Keil,  
 C. Kelley,  Jihan Kim,  R. A. King,  R. Z. Khaliullin,  P. P. Korambath,  
 W. Kurlancheek,  A. Laurent,  A. M. Lee,  M. S. Lee,  S. V. Levchenko,  
 Ching Yeh Lin,  D. Liotard,  E. Livshits,  R. C. Lochan,  I. Lotan,  
 L. A. Martinez-Martinez,  P. E. Maslen,  N. Nair,  D. P. O'Neill,  
 D. Neuhauser,  E. Neuscamman,  C. M. Oana,  R. Olivares-Amaya,  R. Olson,  
 T. M. Perrine,  B. Peters,  P. A. Pieniazek,  A. Prociuk,  Y. M. Rhee,  
 J. Ritchie,  M. A. Rohrdanz,  E. Rosta,  N. J. Russ,  H. F. Schaefer III,  
 M. W. Schmidt,  N. E. Schultz,  S. Sharma,  N. Shenvi,  C. D. Sherrill,  
 A. C. Simmonett,  A. Sodt,  T. Stein,  D. Stuck,  K. S. Thanthiriwatte,  
 V. Vanovschi,  L. Vogt,  Tao Wang,  A. Warshel,  M. A. Watson,  
 C. F. Williams,  Q. Wu,  X. Xu,  Jun Yang,  W. Zhang,  Yan Zhao

 Please cite Q-Chem as follows:
 Y. Shao et al., Mol. Phys. 113, 184-215 (2015)
 DOI: 10.1080/00268976.2014.952696

 Q-Chem 5.4.0 for Intel X86 EM64T Linux

 Parts of Q-Chem use Armadillo 9.800.1 (Horizon Scraper).
 http://arma.sourceforge.net/

 Q-Chem begins on Thu Jul  7 11:02:21 2022  

 Host: 
0

     Scratch files written to ./qchem3157164//
 May1621 |scratch|qcdevops|jenkins|workspace|build_RNUM    
 Processing $rem in /cm/shared/apps/spack/cpu/opt/spack/linux-centos8-zen2/gcc-10.2.0/qchem-5.4-akfmr7b3t57bfs6qan3padb2wnb2i7cl/config/preferences:
 Processing $rem in /home/theleonzhang/.qchemrc:
 Symmetry turned off for PCM/SM12/SMD calculation
 Core orbitals will be frozen

 Checking the input file for inconsistencies... 	...done.

--------------------------------------------------------------
User input:
--------------------------------------------------------------
$molecule
0 1
C	-0.000046	0.576665	-0.001077
C	-0.000093	-0.267681	-1.114298
C	0.000213	-1.658729	-0.822186
H	-0.000149	0.120661	-2.144066
C	0.000450	-1.907209	0.561921
S	-0.000250	-0.394297	1.463440
C	0.000455	-2.723088	-1.884241
H	0.000278	-2.274897	-2.896729
H	-0.891783	-3.379359	-1.810154
H	0.893072	-3.378855	-1.810248
C	-0.000046	2.026800	-0.001077
H	-1.008313	2.413838	-0.001077
H	0.504087	2.413838	-0.874262
H	0.504087	2.413838	0.872108
H	0.000592	-2.865368	1.095219
$end

$rem
JOBTYPE		SP
EXCHANGE	HF
CORRELATION	pRIMP2
BASIS		cc-pvtz
METHOD		rimp2
AUX_BASIS	rimp2-cc-pvtz
SOLVENT_METHOD	PCM
PURECART	11111
SYMMETRY	false
MEM_TOTAL	110000
SCF_CONVERGENCE = 6
THRESH=10
$end



$solvent
dielectric 4.90
$end
--------------------------------------------------------------
 ----------------------------------------------------------------
             Standard Nuclear Orientation (Angstroms)
    I     Atom           X                Y                Z
 ----------------------------------------------------------------
    1      C      -0.0000460000     0.5766650000    -0.0010770000
    2      C      -0.0000930000    -0.2676810000    -1.1142980000
    3      C       0.0002130000    -1.6587290000    -0.8221860000
    4      H      -0.0001490000     0.1206610000    -2.1440660000
    5      C       0.0004500000    -1.9072090000     0.5619210000
    6      S      -0.0002500000    -0.3942970000     1.4634400000
    7      C       0.0004550000    -2.7230880000    -1.8842410000
    8      H       0.0002780000    -2.2748970000    -2.8967290000
    9      H      -0.8917830000    -3.3793590000    -1.8101540000
   10      H       0.8930720000    -3.3788550000    -1.8102480000
   11      C      -0.0000460000     2.0268000000    -0.0010770000
   12      H      -1.0083130000     2.4138380000    -0.0010770000
   13      H       0.5040870000     2.4138380000    -0.8742620000
   14      H       0.5040870000     2.4138380000     0.8721080000
   15      H       0.0005920000    -2.8653680000     1.0952190000
 ----------------------------------------------------------------
 Nuclear Repulsion Energy =         343.99228973 hartrees
 There are       30 alpha and       30 beta electrons

 Q-Chem warning in module forms1/BasisType.C, line 2236:

 You are not using the predefined 5D/6D in this basis set.

 Requested basis set is cc-pVTZ
 There are 120 shells and 326 basis functions

 Total QAlloc Memory Limit 110000 MB
 Mega-Array Size       188 MB
 MEM_STATIC part       192 MB
 Discretize the solute cavity surface with Lebedev spheres
	Using 110 Lebedev grid points for each H atom
	Using 194 Lebedev grid points for other atoms
	Atomic van der Waals radii will be scaled by 1.20
 Remove points where switching function is < 1.0e-08
 Keep 1077 surface tesserae and discard 1161 interior tesserae
 Molecular Surface Area = 160.001 Angst**2

                       Distance Matrix (Angstroms)
             C (  1)   C (  2)   C (  3)   H (  4)   C (  5)   S (  6)
   C (  2)  1.397205
   C (  3)  2.381429  1.421388
   H (  4)  2.190968  1.100560  2.216663
   C (  5)  2.546880  2.344731  1.406234  3.381512
   S (  6)  1.757150  2.580846  2.612063  3.644075  1.761147
   C (  7)  3.799300  2.573293  1.503603  2.855594  2.578637  4.078019
   H (  8)  4.064014  2.684395  2.164115  2.511016  3.478139  4.748445
   H (  9)  4.440505  3.310871  2.175386  3.627209  2.930878  4.519053
   H ( 10)  4.440371  3.310815  2.175384  3.627105  2.930819  4.519142
   C ( 11)  1.450135  2.550275  3.775890  2.868060  3.974090  2.829580
   H ( 12)  2.095664  3.073485  4.275178  3.296583  4.472809  3.323646
   H ( 13)  2.095664  2.739043  4.103950  2.669329  4.581236  3.688472
   H ( 14)  2.095664  3.374989  4.439631  3.822332  4.361343  2.913701
   H ( 15)  3.612403  3.410270  2.265484  4.405603  1.096574  2.498355
             C (  7)   H (  8)   H (  9)   H ( 10)   C ( 11)   H ( 12)
   H (  8)  1.107252
   H (  9)  1.110076  1.787807
   H ( 10)  1.110077  1.787805  1.784855
   C ( 11)  5.109574  5.185499  5.770139  5.769910
   H ( 12)  5.563446  5.602347  6.070212  6.359533  1.080000
   H ( 13)  5.259440  5.131124  6.032038  5.880703  1.080000  1.746369
   H ( 14)  5.851420  6.036737  6.534838  6.395439  1.080000  1.746369
   H ( 15)  2.982855  4.035382  3.082485  3.082520  5.013499  5.485414
             H ( 13)   H ( 14)
   H ( 14)  1.746370
   H ( 15)  5.657064  5.307853
 
 Requested basis set is rimp2-cc-pVTZ
 There are 250 shells and 848 basis functions
 A cutoff of  1.0D-10 yielded   6176 shell pairs
 There are     45232 function pairs (     58150 Cartesian)
 Smallest overlap matrix eigenvalue = 9.35E-05

 Scale SEOQF with 1.000000e+00/1.000000e-01/1.000000e-01

 Standard Electronic Orientation quadrupole field applied
 Nucleus-field energy     =     0.0000000032 hartrees
 Guess from superposition of atomic densities
 Warning:  Energy on first SCF cycle will be non-variational
 SAD guess density has 60.000000 electrons

 -----------------------------------------------------------------------
  General SCF calculation program by
  Eric Jon Sundstrom, Paul Horn, Yuezhi Mao, Dmitri Zuev, Alec White,
  David Stuck, Shaama M.S., Shane Yost, Joonho Lee, David Small,
  Daniel Levine, Susi Lehtola, Hugh Burton, Evgeny Epifanovsky,
  Bang C. Huynh
 -----------------------------------------------------------------------
 Hartree-Fock
 A restricted SCF calculation will be
 performed using DIIS
 SCF converges when DIIS error is below 1.0e-06
 ---------------------------------------
  Cycle       Energy         DIIS error
 ---------------------------------------
    1    -632.0295688776      2.89e-02  
    2    -629.3941104285      1.92e-03  
    3    -629.4639038818      6.57e-04  
    4    -629.4710781470      3.41e-04  
    5    -629.4730868328      5.96e-05  
    6    -629.4732115115      2.40e-05  
    7    -629.4732419870      1.10e-05  
    8    -629.4732506512      4.70e-06  
    9    -629.4732519452      1.60e-06  
   10    -629.4732520846      5.81e-07  Convergence criterion met
 ---------------------------------------
 SCF time:   CPU 144.39s  wall 147.00s 

************** Final PCM Free Energy Summary **************
 G_electrostatic  =      -0.00507258 hartree =      -3.18309350 kcal/mol
 G_cavitation     =       0.00000000 hartree =       0.00000000 kcal/mol
 G_dispersion     =       0.00000000 hartree =       0.00000000 kcal/mol
 G_repulsion      =       0.00000000 hartree =       0.00000000 kcal/mol
 --------------------------------------------------
 Non-electrostatic Free Energy =       0.00000000 hartree =       0.00000000 kcal/mol
 Total                         =      -0.00507258 hartree =      -3.18309350 kcal/mol
 --------------------------------------------------
 SCF Energy (H0 + V/2)                       =    -629.47325208 
 Solute Internal Energy (H0)                 =    -629.46817950 
 Total Free Energy (H0 + V/2 + non-elec)     =    -629.47325208 hartree
                                             = -395000.42742423 kcal/mol
***********************************************************

 SCF   energy in the final basis set =     -629.4732520846
 Total energy in the final basis set =     -629.4732520846


 --------------------------------------------------------------
  Generalized many-body perturbation theory program
  by Joonho Lee, Fazle Rob, Xintian Feng, Evgeny Epifanovsky

 No regularization used 
 (reg. param. = 0.0000e+00)
  (P|Q)^-1/2 Time:  CPU 0.49 s  wall 0.49 s

 In RI-MP2 calculation: 
 # of frozen core orbitals: 11

 Components of the RIMP2 correlation energy:
        aaaa    correlation energy =        -0.1437865717 a.u.
        abab    correlation energy =        -0.8814637935 a.u.
        bbbb    correlation energy =        -0.1437865717 a.u.
        non-Brillouin singles      =        -0.0000000000 a.u.
        total same-spin energy     =        -0.2875731433 a.u.
        total opposite-spin energy =        -0.8814637935 a.u.

 Total  RIMP2   correlation energy =        -1.1690369368 a.u.
        RIMP2         total energy =      -630.6422890214 a.u.

 RI-MP2 Energy Time:  CPU 11.19 s  wall 11.23 s
 
 --------------------------------------------------------------
 
                    Orbital Energies (a.u.)
 --------------------------------------------------------------
 
 Alpha MOs
 -- Occupied --
-91.9783 -11.2700 -11.2541 -11.2467 -11.2274 -11.2268 -11.2204  -8.9780
 -6.6590  -6.6585  -6.6579  -1.1579  -1.0466  -0.9943  -0.9380  -0.8806
 -0.7396  -0.7171  -0.6399  -0.5897  -0.5839  -0.5650  -0.5633  -0.5441
 -0.5052  -0.4898  -0.4828  -0.4553  -0.3374  -0.2999
 -- Virtual --
  0.1094   0.1448   0.1517   0.1759   0.1880   0.1927   0.2090   0.2288
  0.2332   0.2450   0.2460   0.2631   0.2941   0.3164   0.3475   0.3692
  0.3902   0.3918   0.4009   0.4076   0.4430   0.4482   0.4670   0.4856
  0.4979   0.5027   0.5143   0.5314   0.5356   0.5595   0.5714   0.5946
  0.6025   0.6081   0.6160   0.6235   0.6386   0.6422   0.6458   0.6509
  0.6542   0.6639   0.6761   0.6917   0.7248   0.7584   0.7694   0.7875
  0.8128   0.8392   0.8441   0.8546   0.8713   0.8929   0.9118   0.9293
  0.9462   0.9605   1.0044   1.0173   1.0322   1.0446   1.0648   1.0746
  1.0823   1.0881   1.0993   1.1454   1.1591   1.1753   1.1927   1.2127
  1.2253   1.2406   1.2530   1.2671   1.2781   1.3062   1.3203   1.3241
  1.3412   1.3673   1.3993   1.4171   1.4267   1.4430   1.4682   1.4814
  1.4896   1.4956   1.5301   1.5381   1.5488   1.5599   1.5661   1.5779
  1.5979   1.6377   1.6534   1.6644   1.6917   1.6959   1.7137   1.7334
  1.7483   1.7804   1.7990   1.8243   1.8724   1.8979   1.9213   1.9471
  2.0069   2.0386   2.0963   2.1319   2.1862   2.1889   2.2221   2.2274
  2.2628   2.2844   2.3511   2.4069   2.4325   2.4939   2.5035   2.5213
  2.5619   2.5862   2.6093   2.6405   2.6579   2.6864   2.7038   2.7238
  2.7357   2.7525   2.7821   2.7894   2.8227   2.8515   2.8555   2.9046
  2.9095   2.9243   2.9486   2.9733   3.0314   3.0404   3.0451   3.0980
  3.1134   3.1306   3.1454   3.1523   3.1561   3.1750   3.1984   3.2042
  3.2209   3.2474   3.2581   3.2809   3.2942   3.3047   3.3193   3.3262
  3.3371   3.3456   3.3717   3.3898   3.4006   3.4220   3.4281   3.4389
  3.4475   3.4507   3.4825   3.4895   3.5146   3.5194   3.5335   3.5741
  3.5843   3.5911   3.6009   3.6221   3.6328   3.6479   3.6504   3.6656
  3.6871   3.7077   3.7226   3.7404   3.7490   3.7692   3.7808   3.7977
  3.8057   3.8157   3.8340   3.8730   3.8905   3.9116   3.9166   3.9653
  3.9969   4.0101   4.0300   4.0434   4.0781   4.1016   4.1193   4.1235
  4.1379   4.1625   4.1687   4.1842   4.2090   4.2230   4.2384   4.2584
  4.2775   4.2825   4.2984   4.3251   4.3373   4.3530   4.3851   4.3945
  4.4023   4.4084   4.4287   4.4529   4.4629   4.4717   4.4819   4.5508
  4.5732   4.6095   4.6481   4.6537   4.6932   4.7156   4.7370   4.7800
  4.7940   4.8118   4.8437   4.8503   4.8918   4.9301   5.0909   5.1128
  5.1156   5.1747   5.1847   5.2460   5.2560   5.2793   5.2988   5.3366
  5.3828   5.4120   5.4256   5.4555   5.4738   5.5004   5.5352   5.5713
  5.5714   5.5858   5.6263   5.6316   5.6862   5.7087   5.7232   5.7563
  5.8322   5.9497   6.0155   6.1349   6.2266   6.2398   6.2669   6.2882
  6.3339   6.4614   9.0411  11.3195  12.9321  13.8497  14.1883  14.8050
 --------------------------------------------------------------
 
          Ground-State Mulliken Net Atomic Charges

     Atom                 Charge (a.u.)
  ----------------------------------------
      1 C                     0.039178
      2 C                    -0.283637
      3 C                     0.038973
      4 H                     0.179057
      5 C                    -0.263821
      6 S                    -0.006485
      7 C                    -0.274012
      8 H                     0.101487
      9 H                     0.106985
     10 H                     0.106943
     11 C                    -0.283008
     12 H                     0.115092
     13 H                     0.117567
     14 H                     0.111648
     15 H                     0.194032
  ----------------------------------------
  Sum of atomic charges =     0.000000

 -----------------------------------------------------------------
                    Cartesian Multipole Moments
 -----------------------------------------------------------------
    Charge (ESU x 10^10)
                -0.0000
    Dipole Moment (Debye)
         X      -0.0133      Y       0.2782      Z      -1.4667
       Tot       1.4929
    Quadrupole Moments (Debye-Ang)
        XX     -53.8024     XY       0.0346     YY     -42.6531
        XZ       0.0058     YZ       0.3363     ZZ     -48.5097
    Octopole Moments (Debye-Ang^2)
       XXX      -0.6759    XXY      32.6429    XYY       0.1720
       YYY      76.4880    XXZ       2.6273    XYZ      -0.0214
       YYZ       5.1741    XZZ       0.6297    YZZ      25.7158
       ZZZ       0.6959
    Hexadecapole Moments (Debye-Ang^3)
      XXXX     -78.3616   XXXY      -1.5185   XXYY    -158.1117
      XYYY       0.5689   YYYY    -819.4954   XXXZ       0.0439
      XXYZ     -30.9950   XYYZ       0.0005   YYYZ    -106.9324
      XXZZ    -102.8353   XYZZ       1.7008   YYZZ    -213.0353
      XZZZ       0.0743   YZZZ    -103.0114   ZZZZ    -491.6912
 -----------------------------------------------------------------
 Total job time:  162.31s(wall), 155.93s(cpu) 
 Thu Jul  7 11:05:03 2022

        *************************************************************
        *                                                           *
        *  Thank you very much for using Q-Chem.  Have a nice day.  *
        *                                                           *
        *************************************************************


remove work dirs ./qchem3157164.0 -- ./qchem3157164.-1
rm -rf ./qchem3157164
