You are running Q-Chem version: 5.4.0

#
# job setting
#
local host:  exp-5-14
current dir: /expanse/lustre/scratch/theleonzhang/temp_project/Improper_Bend_Test
input file:  Methylthiophene_Improper_Bend_Methyl_Phi_15.qcin
output file: 
nprocs     : 0
nthreads   : 1
#
# qchem installation setting
#
QC:          /cm/shared/apps/spack/cpu/opt/spack/linux-centos8-zen2/gcc-10.2.0/qchem-5.4-akfmr7b3t57bfs6qan3padb2wnb2i7cl
QCAUX:       /cm/shared/apps/spack/cpu/opt/spack/linux-centos8-zen2/gcc-10.2.0/qchem-5.4-akfmr7b3t57bfs6qan3padb2wnb2i7cl/qcaux
QCPROG:      /cm/shared/apps/spack/cpu/opt/spack/linux-centos8-zen2/gcc-10.2.0/qchem-5.4-akfmr7b3t57bfs6qan3padb2wnb2i7cl/exe/qcprog.exe_s
QCPROG_S:    /cm/shared/apps/spack/cpu/opt/spack/linux-centos8-zen2/gcc-10.2.0/qchem-5.4-akfmr7b3t57bfs6qan3padb2wnb2i7cl/exe/qcprog.exe_s
PARALLEL:    -DSERIAL
QCMPI:       mpich
#
# qchem directory setting
#
qcrun:       qchem48772
QCSCRATCH:   .
QCLOCALSCR:  
QCTMPDIR:    .
QCFILEPREF:  ./qchem48772
QCSAVEDIR:   
workdirs:    ./qchem48772
workdir0:    ./qchem48772
partmpdirs =  
#
# parallel setting
#
QCRSH:           ssh
QCMPI:           mpich
QCMPIRUN:        /cm/shared/apps/spack/cpu/opt/spack/linux-centos8-zen2/gcc-10.2.0/qchem-5.4-akfmr7b3t57bfs6qan3padb2wnb2i7cl/bin/mpi/mpirun_qchem
QCMACHINEFILE:   ./qchem48772/hostfile

#
# env setting
#
exported envs:   QC QCAUX QCSCRATCH QCRUNNAME QCFILEPREF QCPROG QCPROG_S GUIFILE

Running Job 1 of 1 Methylthiophene_Improper_Bend_Methyl_Phi_15.qcin
qchem Methylthiophene_Improper_Bend_Methyl_Phi_15.qcin_48772.0 ./qchem48772/ 0
/cm/shared/apps/spack/cpu/opt/spack/linux-centos8-zen2/gcc-10.2.0/qchem-5.4-akfmr7b3t57bfs6qan3padb2wnb2i7cl/exe/qcprog.exe_s Methylthiophene_Improper_Bend_Methyl_Phi_15.qcin_48772.0 ./qchem48772/
                  Welcome to Q-Chem
     A Quantum Leap Into The Future Of Chemistry


 Q-Chem 5.4, Q-Chem, Inc., Pleasanton, CA (2021)

 License issued to: University of California, San Diego (site)

 E. Epifanovsky,  A. T. B. Gilbert,  Xintian Feng,  Joonho Lee,  Yuezhi Mao,  
 N. Mardirossian,  P. Pokhilko,  A. White,  M. Wormit,  M. P. Coons,  
 A. L. Dempwolff,  Zhengting Gan,  D. Hait,  P. R. Horn,  L. D. Jacobson,  
 I. Kaliman,  J. Kussmann,  A. W. Lange,  Ka Un Lao,  D. S. Levine,  Jie Liu,  
 S. C. McKenzie,  A. F. Morrison,  K. Nanda,  F. Plasser,  D. R. Rehn,  
 M. L. Vidal,  Zhi-Qiang You,  Ying Zhu,  B. Alam,  B. Albrecht,  
 A. Aldossary,  E. Alguire,  J. H. Andersen,  D. Barton,  K. Begam,  A. Behn,  
 Y. A. Bernard,  E. J. Berquist,  H. Burton,  A. Carreras,  K. Carter-Fenk,  
 R. Chakraborty,  A. D. Chien,  K. D. Closser,  V. Cofer-Shabica,  
 S. Dasgupta,  Jia Deng,  M. de Wergifosse,  M. Diedenhofen,  Hainam Do,  
 S. Ehlert,  Po-Tung Fang,  S. Fatehi,  Qingguo Feng,  J. Gayvert,  
 Qinghui Ge,  G. Gidofalvi,  M. Goldey,  J. Gomes,  C. Gonzalez-Espinoza,  
 S. Gulania,  A. Gunina,  M. W. D. Hanson-Heine,  P. H. P. Harbach,  
 A. W. Hauser,  M. F. Herbst,  M. Hernandez Vera,  M. Hodecker,  
 Z. C. Holden,  S. Houck,  Xunkun Huang,  Kerwin Hui,  B. C. Huynh,  
 M. Ivanov,  Hyunjun Ji,  Hanjie Jiang,  B. Kaduk,  S. Kaehler,  
 K. Khistyaev,  Jaehoon Kim,  P. Klunzinger,  Z. Koczor-Benda,  
 Joong Hoon Koh,  D. Kosenkov,  L. Koulias,  T. Kowalczyk,  C. M. Krauter,  
 K. Kue,  A. Kunitsa,  T. Kus,  A. Landau,  K. V. Lawler,  D. Lefrancois,  
 S. Lehtola,  Rain Li,  Yi-Pei Li,  Jiashu Liang,  M. Liebenthal,  
 Hung-Hsuan Lin,  You-Sheng Lin,  Fenglai Liu,  Kuan-Yu Liu,  
 M. Loipersberger,  A. Luenser,  A. Manjanath,  P. Manohar,  E. Mansoor,  
 S. F. Manzer,  Shan-Ping Mao,  A. V. Marenich,  T. Markovich,  S. Mason,  
 S. A. Maurer,  P. F. McLaughlin,  M. F. S. J. Menger,  J.-M. Mewes,  
 S. A. Mewes,  P. Morgante,  J. W. Mullinax,  T. S. Nguyen-Beck,  
 K. J. Oosterbaan,  G. Paran,  Alexander C. Paul,  Suranjan K. Paul,  
 F. Pavosevic,  Zheng Pei,  S. Prager,  E. I. Proynov,  E. Ramos,  B. Rana,  
 A. E. Rask,  A. Rettig,  R. M. Richard,  F. Rob,  E. Rossomme,  T. Scheele,  
 M. Scheurer,  M. Schneider,  N. Sergueev,  S. M. Sharada,  W. Skomorowski,  
 D. W. Small,  C. J. Stein,  Yu-Chuan Su,  E. J. Sundstrom,  Zhen Tao,  
 J. Thirman,  T. Tsuchimochi,  N. M. Tubman,  S. P. Veccham,  O. Vydrov,  
 J. Wenzel,  J. Witte,  A. Yamada,  Kun Yao,  S. Yeganeh,  S. R. Yost,  
 A. Zech,  Igor Ying Zhang,  Xing Zhang,  Yu Zhang,  D. Zuev,  
 A. Aspuru-Guzik,  A. T. Bell,  N. A. Besley,  K. B. Bravaya,  B. R. Brooks,  
 D. Casanova,  Jeng-Da Chai,  S. Coriani,  C. J. Cramer,  
 A. E. DePrince, III,  R. A. DiStasio Jr.,  A. Dreuw,  B. D. Dunietz,  
 T. R. Furlani,  W. A. Goddard III,  S. Grimme,  S. Hammes-Schiffer,  
 T. Head-Gordon,  W. J. Hehre,  Chao-Ping Hsu,  T.-C. Jagau,  Yousung Jung,  
 A. Klamt,  Jing Kong,  D. S. Lambrecht,  WanZhen Liang,  N. J. Mayhall,  
 C. W. McCurdy,  J. B. Neaton,  C. Ochsenfeld,  J. A. Parkhill,  R. Peverati,  
 V. A. Rassolov,  Yihan Shao,  L. V. Slipchenko,  T. Stauch,  R. P. Steele,  
 J. E. Subotnik,  A. J. W. Thom,  A. Tkatchenko,  D. G. Truhlar,  
 T. Van Voorhis,  T. A. Wesolowski,  K. B. Whaley,  H. L. Woodcock III,  
 P. M. Zimmerman,  S. Faraji,  P. M. W. Gill,  M. Head-Gordon,  
 J. M. Herbert,  A. I. Krylov

 Contributors to earlier versions of Q-Chem not listed above: 
 R. D. Adamson,  B. Austin,  R. Baer,  J. Baker,  G. J. O. Beran,  
 K. Brandhorst,  S. T. Brown,  E. F. C. Byrd,  A. K. Chakraborty,  
 G. K. L. Chan,  Chun-Min Chang,  Yunqing Chen,  C.-L. Cheng,  
 Siu Hung Chien,  D. M. Chipman,  D. L. Crittenden,  H. Dachsel,  
 R. J. Doerksen,  A. D. Dutoi,  R. G. Edgar,  J. Fosso-Tande,  
 L. Fusti-Molnar,  D. Ghosh,  A. Ghysels,  A. Golubeva-Zadorozhnaya,  
 J. Gonthier,  M. S. Gordon,  S. R. Gwaltney,  G. Hawkins,  J. E. Herr,  
 A. Heyden,  S. Hirata,  E. G. Hohenstein,  G. Kedziora,  F. J. Keil,  
 C. Kelley,  Jihan Kim,  R. A. King,  R. Z. Khaliullin,  P. P. Korambath,  
 W. Kurlancheek,  A. Laurent,  A. M. Lee,  M. S. Lee,  S. V. Levchenko,  
 Ching Yeh Lin,  D. Liotard,  E. Livshits,  R. C. Lochan,  I. Lotan,  
 L. A. Martinez-Martinez,  P. E. Maslen,  N. Nair,  D. P. O'Neill,  
 D. Neuhauser,  E. Neuscamman,  C. M. Oana,  R. Olivares-Amaya,  R. Olson,  
 T. M. Perrine,  B. Peters,  P. A. Pieniazek,  A. Prociuk,  Y. M. Rhee,  
 J. Ritchie,  M. A. Rohrdanz,  E. Rosta,  N. J. Russ,  H. F. Schaefer III,  
 M. W. Schmidt,  N. E. Schultz,  S. Sharma,  N. Shenvi,  C. D. Sherrill,  
 A. C. Simmonett,  A. Sodt,  T. Stein,  D. Stuck,  K. S. Thanthiriwatte,  
 V. Vanovschi,  L. Vogt,  Tao Wang,  A. Warshel,  M. A. Watson,  
 C. F. Williams,  Q. Wu,  X. Xu,  Jun Yang,  W. Zhang,  Yan Zhao

 Please cite Q-Chem as follows:
 Y. Shao et al., Mol. Phys. 113, 184-215 (2015)
 DOI: 10.1080/00268976.2014.952696

 Q-Chem 5.4.0 for Intel X86 EM64T Linux

 Parts of Q-Chem use Armadillo 9.800.1 (Horizon Scraper).
 http://arma.sourceforge.net/

 Q-Chem begins on Thu Jul  7 11:34:21 2022  

 Host: 
0

     Scratch files written to ./qchem48772//
 May1621 |scratch|qcdevops|jenkins|workspace|build_RNUM    
 Processing $rem in /cm/shared/apps/spack/cpu/opt/spack/linux-centos8-zen2/gcc-10.2.0/qchem-5.4-akfmr7b3t57bfs6qan3padb2wnb2i7cl/config/preferences:
 Processing $rem in /home/theleonzhang/.qchemrc:
 Symmetry turned off for PCM/SM12/SMD calculation
 Core orbitals will be frozen

 Checking the input file for inconsistencies... 	...done.

--------------------------------------------------------------
User input:
--------------------------------------------------------------
$molecule
0 1
C	0.026454	0.580154	-0.001077
C	0.026407	-0.264192	-1.114298
C	0.026713	-1.655240	-0.822186
H	0.026351	0.124150	-2.144066
C	0.026950	-1.903720	0.561921
S	0.026250	-0.390808	1.463440
C	0.026955	-2.719599	-1.884241
H	0.026778	-2.271408	-2.896729
H	-0.865283	-3.375870	-1.810154
H	0.919572	-3.375366	-1.810248
C	-0.348869	1.980877	-0.001077
H	-1.422952	2.093768	-0.001077
H	0.037914	2.485206	-0.874262
H	0.037914	2.485206	0.872108
H	0.027092	-2.861879	1.095219
$end

$rem
JOBTYPE		SP
EXCHANGE	HF
CORRELATION	pRIMP2
BASIS		cc-pvtz
METHOD		rimp2
AUX_BASIS	rimp2-cc-pvtz
SOLVENT_METHOD	PCM
PURECART	11111
SYMMETRY	false
MEM_TOTAL	110000
SCF_CONVERGENCE = 6
THRESH=10
$end



$solvent
dielectric 4.90
$end
--------------------------------------------------------------
 ----------------------------------------------------------------
             Standard Nuclear Orientation (Angstroms)
    I     Atom           X                Y                Z
 ----------------------------------------------------------------
    1      C       0.0264540000     0.5801540000    -0.0010770000
    2      C       0.0264070000    -0.2641920000    -1.1142980000
    3      C       0.0267130000    -1.6552400000    -0.8221860000
    4      H       0.0263510000     0.1241500000    -2.1440660000
    5      C       0.0269500000    -1.9037200000     0.5619210000
    6      S       0.0262500000    -0.3908080000     1.4634400000
    7      C       0.0269550000    -2.7195990000    -1.8842410000
    8      H       0.0267780000    -2.2714080000    -2.8967290000
    9      H      -0.8652830000    -3.3758700000    -1.8101540000
   10      H       0.9195720000    -3.3753660000    -1.8102480000
   11      C      -0.3488690000     1.9808770000    -0.0010770000
   12      H      -1.4229520000     2.0937680000    -0.0010770000
   13      H       0.0379140000     2.4852060000    -0.8742620000
   14      H       0.0379140000     2.4852060000     0.8721080000
   15      H       0.0270920000    -2.8618790000     1.0952190000
 ----------------------------------------------------------------
 Nuclear Repulsion Energy =         344.38609843 hartrees
 There are       30 alpha and       30 beta electrons

 Q-Chem warning in module forms1/BasisType.C, line 2236:

 You are not using the predefined 5D/6D in this basis set.

 Requested basis set is cc-pVTZ
 There are 120 shells and 326 basis functions

 Total QAlloc Memory Limit 110000 MB
 Mega-Array Size       188 MB
 MEM_STATIC part       192 MB
 Discretize the solute cavity surface with Lebedev spheres
	Using 110 Lebedev grid points for each H atom
	Using 194 Lebedev grid points for other atoms
	Atomic van der Waals radii will be scaled by 1.20
 Remove points where switching function is < 1.0e-08
 Keep 1076 surface tesserae and discard 1162 interior tesserae
 Molecular Surface Area = 159.618 Angst**2

                       Distance Matrix (Angstroms)
             C (  1)   C (  2)   C (  3)   H (  4)   C (  5)   S (  6)
   C (  2)  1.397205
   C (  3)  2.381429  1.421388
   H (  4)  2.190968  1.100560  2.216663
   C (  5)  2.546880  2.344731  1.406234  3.381512
   S (  6)  1.757150  2.580846  2.612063  3.644075  1.761147
   C (  7)  3.799300  2.573293  1.503603  2.855594  2.578637  4.078019
   H (  8)  4.064014  2.684395  2.164115  2.511016  3.478139  4.748445
   H (  9)  4.440505  3.310871  2.175386  3.627209  2.930878  4.519053
   H ( 10)  4.440371  3.310815  2.175384  3.627105  2.930819  4.519142
   C ( 11)  1.450135  2.533856  3.746549  2.860180  3.943133  2.812546
   H ( 12)  2.095663  2.983266  4.102537  3.251504  4.289416  3.227710
   H ( 13)  2.095664  2.759880  4.140789  2.680881  4.617945  3.706271
   H ( 14)  2.095664  3.391921  4.473707  3.830408  4.399887  2.936199
   H ( 15)  3.612403  3.410270  2.265484  4.405603  1.096574  2.498355
             C (  7)   H (  8)   H (  9)   H ( 10)   C ( 11)   H ( 12)
   H (  8)  1.107252
   H (  9)  1.110076  1.787807
   H ( 10)  1.110077  1.787805  1.784855
   C ( 11)  5.077600  5.158279  5.677515  5.794082
   H ( 12)  5.368150  5.435189  5.787978  6.218677  1.079999
   H ( 13)  5.301903  5.168740  6.003655  5.999975  1.080000  1.746369
   H ( 14)  5.889616  6.068742  6.508649  6.505279  1.080000  1.746369
   H ( 15)  2.982855  4.035382  3.082485  3.082520  4.979508  5.278535
             H ( 13)   H ( 14)
   H ( 14)  1.746370
   H ( 15)  5.698271  5.351749
 
 Requested basis set is rimp2-cc-pVTZ
 There are 250 shells and 848 basis functions
 A cutoff of  1.0D-10 yielded   6180 shell pairs
 There are     45260 function pairs (     58182 Cartesian)
 Smallest overlap matrix eigenvalue = 1.06E-04

 Scale SEOQF with 1.000000e+00/1.000000e-01/1.000000e-01

 Standard Electronic Orientation quadrupole field applied
 Nucleus-field energy     =     0.0000000035 hartrees
 Guess from superposition of atomic densities
 Warning:  Energy on first SCF cycle will be non-variational
 SAD guess density has 60.000000 electrons

 -----------------------------------------------------------------------
  General SCF calculation program by
  Eric Jon Sundstrom, Paul Horn, Yuezhi Mao, Dmitri Zuev, Alec White,
  David Stuck, Shaama M.S., Shane Yost, Joonho Lee, David Small,
  Daniel Levine, Susi Lehtola, Hugh Burton, Evgeny Epifanovsky,
  Bang C. Huynh
 -----------------------------------------------------------------------
 Hartree-Fock
 A restricted SCF calculation will be
 performed using DIIS
 SCF converges when DIIS error is below 1.0e-06
 ---------------------------------------
  Cycle       Energy         DIIS error
 ---------------------------------------
    1    -632.0338640791      2.89e-02  
    2    -629.3906058228      1.92e-03  
    3    -629.4603262019      6.51e-04  
    4    -629.4674515552      3.36e-04  
    5    -629.4694159050      5.97e-05  
    6    -629.4695406198      2.40e-05  
    7    -629.4695712873      1.11e-05  
    8    -629.4695800677      4.66e-06  
    9    -629.4695813782      1.63e-06  
   10    -629.4695815232      5.68e-07  Convergence criterion met
 ---------------------------------------
 SCF time:   CPU 144.28s  wall 145.00s 

************** Final PCM Free Energy Summary **************
 G_electrostatic  =      -0.00499522 hartree =      -3.13454714 kcal/mol
 G_cavitation     =       0.00000000 hartree =       0.00000000 kcal/mol
 G_dispersion     =       0.00000000 hartree =       0.00000000 kcal/mol
 G_repulsion      =       0.00000000 hartree =       0.00000000 kcal/mol
 --------------------------------------------------
 Non-electrostatic Free Energy =       0.00000000 hartree =       0.00000000 kcal/mol
 Total                         =      -0.00499522 hartree =      -3.13454714 kcal/mol
 --------------------------------------------------
 SCF Energy (H0 + V/2)                       =    -629.46958152 
 Solute Internal Energy (H0)                 =    -629.46458630 
 Total Free Energy (H0 + V/2 + non-elec)     =    -629.46958152 hartree
                                             = -394998.12411222 kcal/mol
***********************************************************

 SCF   energy in the final basis set =     -629.4695815232
 Total energy in the final basis set =     -629.4695815232


 --------------------------------------------------------------
  Generalized many-body perturbation theory program
  by Joonho Lee, Fazle Rob, Xintian Feng, Evgeny Epifanovsky

 No regularization used 
 (reg. param. = 0.0000e+00)
  (P|Q)^-1/2 Time:  CPU 0.48 s  wall 0.48 s

 In RI-MP2 calculation: 
 # of frozen core orbitals: 11

 Components of the RIMP2 correlation energy:
        aaaa    correlation energy =        -0.1439642836 a.u.
        abab    correlation energy =        -0.8821659352 a.u.
        bbbb    correlation energy =        -0.1439642836 a.u.
        non-Brillouin singles      =        -0.0000000000 a.u.
        total same-spin energy     =        -0.2879285672 a.u.
        total opposite-spin energy =        -0.8821659352 a.u.

 Total  RIMP2   correlation energy =        -1.1700945024 a.u.
        RIMP2         total energy =      -630.6396760256 a.u.

 RI-MP2 Energy Time:  CPU 11.04 s  wall 11.07 s
 
 --------------------------------------------------------------
 
                    Orbital Energies (a.u.)
 --------------------------------------------------------------
 
 Alpha MOs
 -- Occupied --
-91.9780 -11.2682 -11.2557 -11.2470 -11.2286 -11.2269 -11.2200  -8.9778
 -6.6587  -6.6582  -6.6577  -1.1586  -1.0467  -0.9942  -0.9377  -0.8805
 -0.7400  -0.7176  -0.6397  -0.5896  -0.5836  -0.5652  -0.5633  -0.5440
 -0.5063  -0.4900  -0.4799  -0.4552  -0.3375  -0.3001
 -- Virtual --
  0.1049   0.1446   0.1524   0.1758   0.1861   0.1926   0.2112   0.2284
  0.2311   0.2450   0.2508   0.2631   0.2964   0.3161   0.3476   0.3706
  0.3837   0.3931   0.3983   0.4082   0.4403   0.4476   0.4659   0.4810
  0.4907   0.5060   0.5080   0.5351   0.5374   0.5649   0.5731   0.5938
  0.5971   0.6091   0.6155   0.6210   0.6360   0.6412   0.6445   0.6505
  0.6537   0.6671   0.6775   0.6878   0.7213   0.7535   0.7715   0.7854
  0.8070   0.8342   0.8448   0.8585   0.8677   0.8909   0.9079   0.9224
  0.9524   0.9630   1.0050   1.0223   1.0374   1.0582   1.0661   1.0800
  1.0815   1.0863   1.0944   1.1307   1.1535   1.1702   1.1874   1.2106
  1.2316   1.2387   1.2587   1.2611   1.2793   1.2946   1.3211   1.3399
  1.3435   1.3690   1.3955   1.4134   1.4185   1.4462   1.4600   1.4780
  1.4850   1.4987   1.5236   1.5351   1.5492   1.5530   1.5665   1.5811
  1.5859   1.6344   1.6439   1.6789   1.6846   1.6941   1.7119   1.7398
  1.7580   1.7688   1.8036   1.8310   1.8751   1.9076   1.9212   1.9590
  2.0056   2.0396   2.0930   2.1086   2.1486   2.1854   2.2145   2.2262
  2.2625   2.2847   2.3579   2.4183   2.4305   2.4876   2.5101   2.5366
  2.5567   2.5824   2.6246   2.6465   2.6553   2.6797   2.6961   2.7232
  2.7324   2.7577   2.7871   2.7948   2.8212   2.8423   2.8490   2.8698
  2.9043   2.9387   2.9690   2.9816   3.0326   3.0388   3.0519   3.1023
  3.1122   3.1292   3.1418   3.1511   3.1573   3.1659   3.1893   3.2038
  3.2338   3.2493   3.2654   3.2785   3.2921   3.3036   3.3056   3.3365
  3.3433   3.3530   3.3759   3.3871   3.3968   3.4188   3.4271   3.4368
  3.4540   3.4731   3.4834   3.4880   3.5063   3.5242   3.5345   3.5688
  3.5823   3.5951   3.6010   3.6174   3.6257   3.6416   3.6721   3.6829
  3.6875   3.7134   3.7260   3.7445   3.7511   3.7694   3.7759   3.7836
  3.8066   3.8150   3.8223   3.8702   3.8818   3.9271   3.9349   3.9587
  3.9902   4.0084   4.0230   4.0379   4.0507   4.1075   4.1185   4.1342
  4.1444   4.1512   4.1632   4.1807   4.2145   4.2290   4.2310   4.2704
  4.2777   4.2872   4.3024   4.3387   4.3408   4.3565   4.3801   4.3822
  4.4022   4.4168   4.4307   4.4458   4.4576   4.4712   4.4980   4.5400
  4.5692   4.6191   4.6414   4.6591   4.6986   4.7122   4.7471   4.7792
  4.7908   4.8080   4.8306   4.8527   4.8758   4.9129   5.0702   5.1089
  5.1251   5.1684   5.1817   5.2336   5.2590   5.2821   5.2990   5.3327
  5.3685   5.4041   5.4399   5.4559   5.4713   5.4981   5.5387   5.5691
  5.5837   5.5974   5.6208   5.6314   5.6779   5.7116   5.7252   5.7448
  5.8299   5.9529   5.9987   6.1245   6.2263   6.2300   6.2712   6.2870
  6.3304   6.4618   9.0198  11.3141  12.9038  13.8479  14.1893  14.8082
 --------------------------------------------------------------
 
          Ground-State Mulliken Net Atomic Charges

     Atom                 Charge (a.u.)
  ----------------------------------------
      1 C                     0.026479
      2 C                    -0.284545
      3 C                     0.044878
      4 H                     0.179021
      5 C                    -0.262153
      6 S                    -0.005617
      7 C                    -0.272356
      8 H                     0.101579
      9 H                     0.106815
     10 H                     0.106877
     11 C                    -0.281677
     12 H                     0.118089
     13 H                     0.116516
     14 H                     0.112004
     15 H                     0.194091
  ----------------------------------------
  Sum of atomic charges =     0.000000

 -----------------------------------------------------------------
                    Cartesian Multipole Moments
 -----------------------------------------------------------------
    Charge (ESU x 10^10)
                -0.0000
    Dipole Moment (Debye)
         X      -0.4092      Y       0.1110      Z      -1.4959
       Tot       1.5548
    Quadrupole Moments (Debye-Ang)
        XX     -53.7138     XY      -0.5214     YY     -42.8476
        XZ       0.0112     YZ       0.2849     ZZ     -48.4913
    Octopole Moments (Debye-Ang^2)
       XXX       2.9274    XXY      32.5111    XYY       1.1784
       YYY      76.2181    XXZ       2.6024    XYZ       0.0449
       YYZ       5.2052    XZZ       2.0054    YZZ      25.9566
       ZZZ       0.5663
    Hexadecapole Moments (Debye-Ang^3)
      XXXX     -82.9650   XXXY      18.0480   XXYY    -158.5765
      XYYY      20.4620   YYYY    -809.3982   XXXZ       0.3679
      XXYZ     -31.0152   XYYZ       0.2061   YYYZ    -107.2846
      XXZZ    -104.3465   XYZZ       7.7119   YYZZ    -210.7273
      XZZZ      -0.0288   YZZZ    -102.9838   ZZZZ    -491.5088
 -----------------------------------------------------------------
 Total job time:  161.37s(wall), 155.66s(cpu) 
 Thu Jul  7 11:37:02 2022

        *************************************************************
        *                                                           *
        *  Thank you very much for using Q-Chem.  Have a nice day.  *
        *                                                           *
        *************************************************************


remove work dirs ./qchem48772.0 -- ./qchem48772.-1
rm -rf ./qchem48772
