You are running Q-Chem version: 5.4.0

#
# job setting
#
local host:  exp-7-21
current dir: /expanse/lustre/scratch/theleonzhang/temp_project/Improper_Bend_Test
input file:  Methylthiophene_Improper_Bend_Methyl_Phi_30.qcin
output file: 
nprocs     : 0
nthreads   : 1
#
# qchem installation setting
#
QC:          /cm/shared/apps/spack/cpu/opt/spack/linux-centos8-zen2/gcc-10.2.0/qchem-5.4-akfmr7b3t57bfs6qan3padb2wnb2i7cl
QCAUX:       /cm/shared/apps/spack/cpu/opt/spack/linux-centos8-zen2/gcc-10.2.0/qchem-5.4-akfmr7b3t57bfs6qan3padb2wnb2i7cl/qcaux
QCPROG:      /cm/shared/apps/spack/cpu/opt/spack/linux-centos8-zen2/gcc-10.2.0/qchem-5.4-akfmr7b3t57bfs6qan3padb2wnb2i7cl/exe/qcprog.exe_s
QCPROG_S:    /cm/shared/apps/spack/cpu/opt/spack/linux-centos8-zen2/gcc-10.2.0/qchem-5.4-akfmr7b3t57bfs6qan3padb2wnb2i7cl/exe/qcprog.exe_s
PARALLEL:    -DSERIAL
QCMPI:       mpich
#
# qchem directory setting
#
qcrun:       qchem3159735
QCSCRATCH:   .
QCLOCALSCR:  
QCTMPDIR:    .
QCFILEPREF:  ./qchem3159735
QCSAVEDIR:   
workdirs:    ./qchem3159735
workdir0:    ./qchem3159735
partmpdirs =  
#
# parallel setting
#
QCRSH:           ssh
QCMPI:           mpich
QCMPIRUN:        /cm/shared/apps/spack/cpu/opt/spack/linux-centos8-zen2/gcc-10.2.0/qchem-5.4-akfmr7b3t57bfs6qan3padb2wnb2i7cl/bin/mpi/mpirun_qchem
QCMACHINEFILE:   ./qchem3159735/hostfile

#
# env setting
#
exported envs:   QC QCAUX QCSCRATCH QCRUNNAME QCFILEPREF QCPROG QCPROG_S GUIFILE

Running Job 1 of 1 Methylthiophene_Improper_Bend_Methyl_Phi_30.qcin
qchem Methylthiophene_Improper_Bend_Methyl_Phi_30.qcin_3159735.0 ./qchem3159735/ 0
/cm/shared/apps/spack/cpu/opt/spack/linux-centos8-zen2/gcc-10.2.0/qchem-5.4-akfmr7b3t57bfs6qan3padb2wnb2i7cl/exe/qcprog.exe_s Methylthiophene_Improper_Bend_Methyl_Phi_30.qcin_3159735.0 ./qchem3159735/
                  Welcome to Q-Chem
     A Quantum Leap Into The Future Of Chemistry


 Q-Chem 5.4, Q-Chem, Inc., Pleasanton, CA (2021)

 License issued to: University of California, San Diego (site)

 E. Epifanovsky,  A. T. B. Gilbert,  Xintian Feng,  Joonho Lee,  Yuezhi Mao,  
 N. Mardirossian,  P. Pokhilko,  A. White,  M. Wormit,  M. P. Coons,  
 A. L. Dempwolff,  Zhengting Gan,  D. Hait,  P. R. Horn,  L. D. Jacobson,  
 I. Kaliman,  J. Kussmann,  A. W. Lange,  Ka Un Lao,  D. S. Levine,  Jie Liu,  
 S. C. McKenzie,  A. F. Morrison,  K. Nanda,  F. Plasser,  D. R. Rehn,  
 M. L. Vidal,  Zhi-Qiang You,  Ying Zhu,  B. Alam,  B. Albrecht,  
 A. Aldossary,  E. Alguire,  J. H. Andersen,  D. Barton,  K. Begam,  A. Behn,  
 Y. A. Bernard,  E. J. Berquist,  H. Burton,  A. Carreras,  K. Carter-Fenk,  
 R. Chakraborty,  A. D. Chien,  K. D. Closser,  V. Cofer-Shabica,  
 S. Dasgupta,  Jia Deng,  M. de Wergifosse,  M. Diedenhofen,  Hainam Do,  
 S. Ehlert,  Po-Tung Fang,  S. Fatehi,  Qingguo Feng,  J. Gayvert,  
 Qinghui Ge,  G. Gidofalvi,  M. Goldey,  J. Gomes,  C. Gonzalez-Espinoza,  
 S. Gulania,  A. Gunina,  M. W. D. Hanson-Heine,  P. H. P. Harbach,  
 A. W. Hauser,  M. F. Herbst,  M. Hernandez Vera,  M. Hodecker,  
 Z. C. Holden,  S. Houck,  Xunkun Huang,  Kerwin Hui,  B. C. Huynh,  
 M. Ivanov,  Hyunjun Ji,  Hanjie Jiang,  B. Kaduk,  S. Kaehler,  
 K. Khistyaev,  Jaehoon Kim,  P. Klunzinger,  Z. Koczor-Benda,  
 Joong Hoon Koh,  D. Kosenkov,  L. Koulias,  T. Kowalczyk,  C. M. Krauter,  
 K. Kue,  A. Kunitsa,  T. Kus,  A. Landau,  K. V. Lawler,  D. Lefrancois,  
 S. Lehtola,  Rain Li,  Yi-Pei Li,  Jiashu Liang,  M. Liebenthal,  
 Hung-Hsuan Lin,  You-Sheng Lin,  Fenglai Liu,  Kuan-Yu Liu,  
 M. Loipersberger,  A. Luenser,  A. Manjanath,  P. Manohar,  E. Mansoor,  
 S. F. Manzer,  Shan-Ping Mao,  A. V. Marenich,  T. Markovich,  S. Mason,  
 S. A. Maurer,  P. F. McLaughlin,  M. F. S. J. Menger,  J.-M. Mewes,  
 S. A. Mewes,  P. Morgante,  J. W. Mullinax,  T. S. Nguyen-Beck,  
 K. J. Oosterbaan,  G. Paran,  Alexander C. Paul,  Suranjan K. Paul,  
 F. Pavosevic,  Zheng Pei,  S. Prager,  E. I. Proynov,  E. Ramos,  B. Rana,  
 A. E. Rask,  A. Rettig,  R. M. Richard,  F. Rob,  E. Rossomme,  T. Scheele,  
 M. Scheurer,  M. Schneider,  N. Sergueev,  S. M. Sharada,  W. Skomorowski,  
 D. W. Small,  C. J. Stein,  Yu-Chuan Su,  E. J. Sundstrom,  Zhen Tao,  
 J. Thirman,  T. Tsuchimochi,  N. M. Tubman,  S. P. Veccham,  O. Vydrov,  
 J. Wenzel,  J. Witte,  A. Yamada,  Kun Yao,  S. Yeganeh,  S. R. Yost,  
 A. Zech,  Igor Ying Zhang,  Xing Zhang,  Yu Zhang,  D. Zuev,  
 A. Aspuru-Guzik,  A. T. Bell,  N. A. Besley,  K. B. Bravaya,  B. R. Brooks,  
 D. Casanova,  Jeng-Da Chai,  S. Coriani,  C. J. Cramer,  
 A. E. DePrince, III,  R. A. DiStasio Jr.,  A. Dreuw,  B. D. Dunietz,  
 T. R. Furlani,  W. A. Goddard III,  S. Grimme,  S. Hammes-Schiffer,  
 T. Head-Gordon,  W. J. Hehre,  Chao-Ping Hsu,  T.-C. Jagau,  Yousung Jung,  
 A. Klamt,  Jing Kong,  D. S. Lambrecht,  WanZhen Liang,  N. J. Mayhall,  
 C. W. McCurdy,  J. B. Neaton,  C. Ochsenfeld,  J. A. Parkhill,  R. Peverati,  
 V. A. Rassolov,  Yihan Shao,  L. V. Slipchenko,  T. Stauch,  R. P. Steele,  
 J. E. Subotnik,  A. J. W. Thom,  A. Tkatchenko,  D. G. Truhlar,  
 T. Van Voorhis,  T. A. Wesolowski,  K. B. Whaley,  H. L. Woodcock III,  
 P. M. Zimmerman,  S. Faraji,  P. M. W. Gill,  M. Head-Gordon,  
 J. M. Herbert,  A. I. Krylov

 Contributors to earlier versions of Q-Chem not listed above: 
 R. D. Adamson,  B. Austin,  R. Baer,  J. Baker,  G. J. O. Beran,  
 K. Brandhorst,  S. T. Brown,  E. F. C. Byrd,  A. K. Chakraborty,  
 G. K. L. Chan,  Chun-Min Chang,  Yunqing Chen,  C.-L. Cheng,  
 Siu Hung Chien,  D. M. Chipman,  D. L. Crittenden,  H. Dachsel,  
 R. J. Doerksen,  A. D. Dutoi,  R. G. Edgar,  J. Fosso-Tande,  
 L. Fusti-Molnar,  D. Ghosh,  A. Ghysels,  A. Golubeva-Zadorozhnaya,  
 J. Gonthier,  M. S. Gordon,  S. R. Gwaltney,  G. Hawkins,  J. E. Herr,  
 A. Heyden,  S. Hirata,  E. G. Hohenstein,  G. Kedziora,  F. J. Keil,  
 C. Kelley,  Jihan Kim,  R. A. King,  R. Z. Khaliullin,  P. P. Korambath,  
 W. Kurlancheek,  A. Laurent,  A. M. Lee,  M. S. Lee,  S. V. Levchenko,  
 Ching Yeh Lin,  D. Liotard,  E. Livshits,  R. C. Lochan,  I. Lotan,  
 L. A. Martinez-Martinez,  P. E. Maslen,  N. Nair,  D. P. O'Neill,  
 D. Neuhauser,  E. Neuscamman,  C. M. Oana,  R. Olivares-Amaya,  R. Olson,  
 T. M. Perrine,  B. Peters,  P. A. Pieniazek,  A. Prociuk,  Y. M. Rhee,  
 J. Ritchie,  M. A. Rohrdanz,  E. Rosta,  N. J. Russ,  H. F. Schaefer III,  
 M. W. Schmidt,  N. E. Schultz,  S. Sharma,  N. Shenvi,  C. D. Sherrill,  
 A. C. Simmonett,  A. Sodt,  T. Stein,  D. Stuck,  K. S. Thanthiriwatte,  
 V. Vanovschi,  L. Vogt,  Tao Wang,  A. Warshel,  M. A. Watson,  
 C. F. Williams,  Q. Wu,  X. Xu,  Jun Yang,  W. Zhang,  Yan Zhao

 Please cite Q-Chem as follows:
 Y. Shao et al., Mol. Phys. 113, 184-215 (2015)
 DOI: 10.1080/00268976.2014.952696

 Q-Chem 5.4.0 for Intel X86 EM64T Linux

 Parts of Q-Chem use Armadillo 9.800.1 (Horizon Scraper).
 http://arma.sourceforge.net/

 Q-Chem begins on Thu Jul  7 11:10:30 2022  

 Host: 
0

     Scratch files written to ./qchem3159735//
 May1621 |scratch|qcdevops|jenkins|workspace|build_RNUM    
 Processing $rem in /cm/shared/apps/spack/cpu/opt/spack/linux-centos8-zen2/gcc-10.2.0/qchem-5.4-akfmr7b3t57bfs6qan3padb2wnb2i7cl/config/preferences:
 Processing $rem in /home/theleonzhang/.qchemrc:
 Symmetry turned off for PCM/SM12/SMD calculation
 Core orbitals will be frozen

 Checking the input file for inconsistencies... 	...done.

--------------------------------------------------------------
User input:
--------------------------------------------------------------
$molecule
0 1
C	0.051147	0.590382	-0.001077
C	0.051100	-0.253964	-1.114298
C	0.051406	-1.645012	-0.822186
H	0.051044	0.134378	-2.144066
C	0.051643	-1.893492	0.561921
S	0.050943	-0.380580	1.463440
C	0.051648	-2.709371	-1.884241
H	0.051471	-2.261180	-2.896729
H	-0.840590	-3.365642	-1.810154
H	0.944265	-3.365138	-1.810248
C	-0.673921	1.846236	-0.001077
H	-1.740624	1.677287	-0.001077
H	-0.430847	2.433487	-0.874262
H	-0.430847	2.433487	0.872108
H	0.051785	-2.851651	1.095219
$end

$rem
JOBTYPE		SP
EXCHANGE	HF
CORRELATION	pRIMP2
BASIS		cc-pvtz
METHOD		rimp2
AUX_BASIS	rimp2-cc-pvtz
SOLVENT_METHOD	PCM
PURECART	11111
SYMMETRY	false
MEM_TOTAL	110000
SCF_CONVERGENCE = 6
THRESH=10
$end



$solvent
dielectric 4.90
$end
--------------------------------------------------------------
 ----------------------------------------------------------------
             Standard Nuclear Orientation (Angstroms)
    I     Atom           X                Y                Z
 ----------------------------------------------------------------
    1      C       0.0511470000     0.5903820000    -0.0010770000
    2      C       0.0511000000    -0.2539640000    -1.1142980000
    3      C       0.0514060000    -1.6450120000    -0.8221860000
    4      H       0.0510440000     0.1343780000    -2.1440660000
    5      C       0.0516430000    -1.8934920000     0.5619210000
    6      S       0.0509430000    -0.3805800000     1.4634400000
    7      C       0.0516480000    -2.7093710000    -1.8842410000
    8      H       0.0514710000    -2.2611800000    -2.8967290000
    9      H      -0.8405900000    -3.3656420000    -1.8101540000
   10      H       0.9442650000    -3.3651380000    -1.8102480000
   11      C      -0.6739210000     1.8462360000    -0.0010770000
   12      H      -1.7406240000     1.6772870000    -0.0010770000
   13      H      -0.4308470000     2.4334870000    -0.8742620000
   14      H      -0.4308470000     2.4334870000     0.8721080000
   15      H       0.0517850000    -2.8516510000     1.0952190000
 ----------------------------------------------------------------
 Nuclear Repulsion Energy =         345.60814772 hartrees
 There are       30 alpha and       30 beta electrons

 Q-Chem warning in module forms1/BasisType.C, line 2236:

 You are not using the predefined 5D/6D in this basis set.

 Requested basis set is cc-pVTZ
 There are 120 shells and 326 basis functions

 Total QAlloc Memory Limit 110000 MB
 Mega-Array Size       188 MB
 MEM_STATIC part       192 MB
 Discretize the solute cavity surface with Lebedev spheres
	Using 110 Lebedev grid points for each H atom
	Using 194 Lebedev grid points for other atoms
	Atomic van der Waals radii will be scaled by 1.20
 Remove points where switching function is < 1.0e-08
 Keep 1058 surface tesserae and discard 1180 interior tesserae
 Molecular Surface Area = 158.981 Angst**2

                       Distance Matrix (Angstroms)
             C (  1)   C (  2)   C (  3)   H (  4)   C (  5)   S (  6)
   C (  2)  1.397205
   C (  3)  2.381429  1.421388
   H (  4)  2.190968  1.100560  2.216663
   C (  5)  2.546880  2.344731  1.406234  3.381512
   S (  6)  1.757150  2.580846  2.612063  3.644075  1.761147
   C (  7)  3.799300  2.573293  1.503603  2.855594  2.578637  4.078019
   H (  8)  4.064014  2.684395  2.164115  2.511016  3.478139  4.748445
   H (  9)  4.440505  3.310871  2.175386  3.627209  2.930878  4.519053
   H ( 10)  4.440371  3.310815  2.175384  3.627105  2.930819  4.519142
   C ( 11)  1.450135  2.485107  3.659116  2.836976  3.850841  2.762055
   H ( 12)  2.095664  2.859942  3.863064  3.191088  4.034805  3.096666
   H ( 13)  2.095664  2.740854  4.107242  2.670304  4.584557  3.689979
   H ( 14)  2.095664  3.376459  4.442674  3.823013  4.364832  2.915608
   H ( 15)  3.612403  3.410270  2.265484  4.405603  1.096574  2.498355
             C (  7)   H (  8)   H (  9)   H ( 10)   C ( 11)   H ( 12)
   H (  8)  1.107252
   H (  9)  1.110076  1.787807
   H ( 10)  1.110077  1.787805  1.784855
   C ( 11)  4.982601  5.077584  5.519439  5.748917
   H ( 12)  5.099148  5.206527  5.432675  5.992310  1.080000
   H ( 13)  5.263254  5.134482  5.888436  6.032500  1.080000  1.746369
   H ( 14)  5.854848  6.039591  6.402524  6.535290  1.080000  1.746369
   H ( 15)  2.982855  4.035382  3.082485  3.082520  4.878387  4.992582
             H ( 13)   H ( 14)
   H ( 14)  1.746370
   H ( 15)  5.660784  5.311817
 
 Requested basis set is rimp2-cc-pVTZ
 There are 250 shells and 848 basis functions
 A cutoff of  1.0D-10 yielded   6210 shell pairs
 There are     45504 function pairs (     58498 Cartesian)
 Smallest overlap matrix eigenvalue = 1.23E-04

 Scale SEOQF with 1.000000e-01/1.000000e-01/1.000000e-01

 Standard Electronic Orientation quadrupole field applied
 Nucleus-field energy     =     0.0000000018 hartrees
 Guess from superposition of atomic densities
 Warning:  Energy on first SCF cycle will be non-variational
 SAD guess density has 60.000000 electrons

 -----------------------------------------------------------------------
  General SCF calculation program by
  Eric Jon Sundstrom, Paul Horn, Yuezhi Mao, Dmitri Zuev, Alec White,
  David Stuck, Shaama M.S., Shane Yost, Joonho Lee, David Small,
  Daniel Levine, Susi Lehtola, Hugh Burton, Evgeny Epifanovsky,
  Bang C. Huynh
 -----------------------------------------------------------------------
 Hartree-Fock
 A restricted SCF calculation will be
 performed using DIIS
 SCF converges when DIIS error is below 1.0e-06
 ---------------------------------------
  Cycle       Energy         DIIS error
 ---------------------------------------
    1    -632.0498938079      2.90e-02  
    2    -629.3782226880      1.91e-03  
    3    -629.4478303674      6.38e-04  
    4    -629.4548790176      3.25e-04  
    5    -629.4567403037      5.97e-05  
    6    -629.4568666519      2.36e-05  
    7    -629.4568984392      1.12e-05  
    8    -629.4569076540      4.21e-06  
    9    -629.4569089184      1.68e-06  
   10    -629.4569090523      5.39e-07  Convergence criterion met
 ---------------------------------------
 SCF time:   CPU 145.43s  wall 146.00s 

************** Final PCM Free Energy Summary **************
 G_electrostatic  =      -0.00487277 hartree =      -3.05771034 kcal/mol
 G_cavitation     =       0.00000000 hartree =       0.00000000 kcal/mol
 G_dispersion     =       0.00000000 hartree =       0.00000000 kcal/mol
 G_repulsion      =       0.00000000 hartree =       0.00000000 kcal/mol
 --------------------------------------------------
 Non-electrostatic Free Energy =       0.00000000 hartree =       0.00000000 kcal/mol
 Total                         =      -0.00487277 hartree =      -3.05771034 kcal/mol
 --------------------------------------------------
 SCF Energy (H0 + V/2)                       =    -629.45690905 
 Solute Internal Energy (H0)                 =    -629.45203628 
 Total Free Energy (H0 + V/2 + non-elec)     =    -629.45690905 hartree
                                             = -394990.17201669 kcal/mol
***********************************************************

 SCF   energy in the final basis set =     -629.4569090523
 Total energy in the final basis set =     -629.4569090523


 --------------------------------------------------------------
  Generalized many-body perturbation theory program
  by Joonho Lee, Fazle Rob, Xintian Feng, Evgeny Epifanovsky

 No regularization used 
 (reg. param. = 0.0000e+00)
  (P|Q)^-1/2 Time:  CPU 0.49 s  wall 0.49 s

 In RI-MP2 calculation: 
 # of frozen core orbitals: 11

 Components of the RIMP2 correlation energy:
        aaaa    correlation energy =        -0.1444874106 a.u.
        abab    correlation energy =        -0.8842481520 a.u.
        bbbb    correlation energy =        -0.1444874106 a.u.
        non-Brillouin singles      =        -0.0000000000 a.u.
        total same-spin energy     =        -0.2889748211 a.u.
        total opposite-spin energy =        -0.8842481520 a.u.

 Total  RIMP2   correlation energy =        -1.1732229731 a.u.
        RIMP2         total energy =      -630.6301320254 a.u.

 RI-MP2 Energy Time:  CPU 11.18 s  wall 11.23 s
 
 --------------------------------------------------------------
 
                    Orbital Energies (a.u.)
 --------------------------------------------------------------
 
 Alpha MOs
 -- Occupied --
-91.9769 -11.2623 -11.2604 -11.2475 -11.2322 -11.2273 -11.2182  -8.9769
 -6.6579  -6.6573  -6.6568  -1.1606  -1.0470  -0.9940  -0.9368  -0.8799
 -0.7411  -0.7192  -0.6390  -0.5892  -0.5830  -0.5659  -0.5629  -0.5436
 -0.5090  -0.4899  -0.4719  -0.4549  -0.3374  -0.3003
 -- Virtual --
  0.0936   0.1445   0.1547   0.1758   0.1842   0.1923   0.2126   0.2273
  0.2295   0.2449   0.2536   0.2630   0.2988   0.3109   0.3470   0.3695
  0.3835   0.3920   0.4018   0.4121   0.4320   0.4533   0.4649   0.4753
  0.4793   0.4990   0.5108   0.5380   0.5410   0.5673   0.5743   0.5835
  0.5984   0.6067   0.6124   0.6213   0.6337   0.6389   0.6421   0.6471
  0.6509   0.6682   0.6822   0.6852   0.7231   0.7483   0.7658   0.7871
  0.7967   0.8147   0.8431   0.8582   0.8631   0.8866   0.8975   0.9305
  0.9572   0.9765   1.0108   1.0221   1.0384   1.0510   1.0638   1.0765
  1.0852   1.0935   1.1023   1.1276   1.1569   1.1740   1.1889   1.2093
  1.2315   1.2430   1.2500   1.2608   1.2837   1.2909   1.3188   1.3323
  1.3575   1.3773   1.3906   1.4070   1.4171   1.4459   1.4671   1.4751
  1.4875   1.5002   1.5170   1.5299   1.5459   1.5475   1.5609   1.5797
  1.5814   1.6214   1.6342   1.6686   1.6916   1.6987   1.7082   1.7459
  1.7569   1.7751   1.8066   1.8305   1.8813   1.8998   1.9249   1.9667
  1.9975   2.0361   2.0635   2.1102   2.1421   2.1834   2.2154   2.2188
  2.2603   2.2767   2.3523   2.4111   2.4247   2.4787   2.5042   2.5393
  2.5522   2.5897   2.6168   2.6423   2.6603   2.6805   2.6872   2.7236
  2.7561   2.7624   2.7898   2.8007   2.8182   2.8368   2.8550   2.8774
  2.9048   2.9449   2.9676   3.0089   3.0290   3.0395   3.0580   3.1044
  3.1107   3.1336   3.1348   3.1458   3.1610   3.1708   3.1852   3.1946
  3.2208   3.2537   3.2560   3.2719   3.2816   3.3006   3.3120   3.3339
  3.3397   3.3577   3.3683   3.3900   3.4036   3.4184   3.4324   3.4385
  3.4394   3.4703   3.4784   3.5013   3.5223   3.5314   3.5404   3.5621
  3.5825   3.5949   3.6055   3.6190   3.6316   3.6530   3.6758   3.6905
  3.6989   3.7099   3.7330   3.7442   3.7515   3.7700   3.7810   3.7945
  3.8084   3.8237   3.8374   3.8641   3.8822   3.9215   3.9467   3.9643
  3.9822   4.0110   4.0223   4.0377   4.0488   4.1024   4.1200   4.1337
  4.1442   4.1624   4.1738   4.1862   4.2209   4.2303   4.2346   4.2637
  4.2895   4.2963   4.3019   4.3390   4.3438   4.3626   4.3721   4.3859
  4.4022   4.4336   4.4390   4.4499   4.4615   4.4689   4.5135   4.5310
  4.5690   4.6131   4.6503   4.6617   4.6994   4.7050   4.7481   4.7540
  4.8011   4.8076   4.8168   4.8531   4.8702   4.9121   5.0410   5.1053
  5.1309   5.1569   5.1864   5.2210   5.2621   5.2779   5.3008   5.3251
  5.3644   5.4028   5.4342   5.4574   5.4780   5.4936   5.5490   5.5663
  5.5893   5.6025   5.6258   5.6445   5.6656   5.7053   5.7257   5.7415
  5.8257   5.9413   5.9695   6.1060   6.2248   6.2279   6.2728   6.2791
  6.3230   6.4239   9.0191  11.3310  12.8598  13.8062  14.1896  14.7680
 --------------------------------------------------------------
 
          Ground-State Mulliken Net Atomic Charges

     Atom                 Charge (a.u.)
  ----------------------------------------
      1 C                    -0.003338
      2 C                    -0.263116
      3 C                     0.042946
      4 H                     0.179158
      5 C                    -0.250816
      6 S                    -0.003554
      7 C                    -0.270378
      8 H                     0.101751
      9 H                     0.106271
     10 H                     0.106869
     11 C                    -0.283996
     12 H                     0.120142
     13 H                     0.113268
     14 H                     0.110407
     15 H                     0.194386
  ----------------------------------------
  Sum of atomic charges =     0.000000

 -----------------------------------------------------------------
                    Cartesian Multipole Moments
 -----------------------------------------------------------------
    Charge (ESU x 10^10)
                -0.0000
    Dipole Moment (Debye)
         X      -0.7409      Y      -0.3502      Z      -1.5680
       Tot       1.7693
    Quadrupole Moments (Debye-Ang)
        XX     -53.5429     XY      -0.8720     YY     -43.4052
        XZ       0.0160     YZ       0.1787     ZZ     -48.3792
    Octopole Moments (Debye-Ang^2)
       XXX       6.6386    XXY      32.4446    XYY       2.4821
       YYY      75.5319    XXZ       2.5197    XYZ       0.1138
       YYZ       5.4717    XZZ       3.2960    YZZ      26.5260
       ZZZ       0.1928
    Hexadecapole Moments (Debye-Ang^3)
      XXXX     -98.9086   XXXY      35.5442   XXYY    -157.6943
      XYYY      36.8294   YYYY    -781.8738   XXXZ       0.6539
      XXYZ     -31.0932   XYYZ       0.4569   YYYZ    -107.9902
      XXZZ    -107.2638   XYZZ      12.4423   YYZZ    -205.7225
      XZZZ      -0.1772   YZZZ    -102.8620   ZZZZ    -490.8606
 -----------------------------------------------------------------
 Total job time:  160.73s(wall), 156.96s(cpu) 
 Thu Jul  7 11:13:11 2022

        *************************************************************
        *                                                           *
        *  Thank you very much for using Q-Chem.  Have a nice day.  *
        *                                                           *
        *************************************************************


remove work dirs ./qchem3159735.0 -- ./qchem3159735.-1
rm -rf ./qchem3159735
