
                                 *****************
                                 * O   R   C   A *
                                 *****************

           --- An Ab Initio, DFT and Semiempirical electronic structure package ---

                  #######################################################
                  #                        -***-                        #
                  #  Department of molecular theory and spectroscopy    #
                  #              Directorship: Frank Neese              #
                  # Max Planck Institute for Chemical Energy Conversion #
                  #                  D-45470 Muelheim/Ruhr              #
                  #                       Germany                       #
                  #                                                     #
                  #                  All rights reserved                #
                  #                        -***-                        #
                  #######################################################


                         Program Version 3.0.3 - RELEASE   -


 With contributions from (in alphabetic order):
   Ute Becker             : Parallelization
   Dmytro Bykov           : SCF Hessian
   Dmitry Ganyushin       : Spin-Orbit,Spin-Spin,Magnetic field MRCI
   Andreas Hansen         : Spin unrestricted coupled pair/coupled cluster methods
   Dimitrios Liakos       : Extrapolation schemes; parallel MDCI
   Robert Izsak           : Overlap fitted RIJCOSX, COSX-SCS-MP3
   Christian Kollmar      : KDIIS, OOCD, Brueckner-CCSD(T), CCSD density
   Simone Kossmann        : Meta GGA functionals, TD-DFT gradient, OOMP2, MP2 Hessian
   Taras Petrenko         : DFT Hessian,TD-DFT gradient, ASA and ECA modules, normal mode analysis, Resonance Raman, ABS, FL, XAS/XES, NRVS
   Christoph Reimann      : Effective Core Potentials
   Michael Roemelt        : Restricted open shell CIS
   Christoph Riplinger    : Improved optimizer, TS searches, QM/MM, DLPNO-CCSD
   Barbara Sandhoefer     : DKH picture change effects
   Igor Schapiro          : Molecular dynamics
   Kantharuban Sivalingam : CASSCF convergence, NEVPT2
   Boris Wezisla          : Elementary symmetry handling
   Frank Wennmohs         : Technical directorship


 We gratefully acknowledge several colleagues who have allowed us to
 interface, adapt or use parts of their codes:
   Stefan Grimme, W. Hujo, H. Kruse, T. Risthaus : VdW corrections, initial TS optimization,
                                                   DFT functionals, gCP
   Ed Valeev                                     : LibInt (2-el integral package), F12 methods
   Garnet Chan, S. Sharma, R. Olivares           : DMRG
   Ulf Ekstrom                                   : XCFun DFT Library
   Mihaly Kallay                                 : mrcc  (arbitrary order and MRCC methods)
   Andreas Klamt, Michael Diedenhofen            : otool_cosmo (COSMO solvation model)
   Frank Weinhold                                : gennbo (NPA and NBO analysis)
   Christopher J. Cramer and Donald G. Truhlar   : smd solvation model


 Your calculation uses the libint2 library for the computation of 2-el integrals
 For citations please refer to: http://libint.valeyev.net

 This ORCA versions uses:
   CBLAS   interface :  Fast vector & matrix operations
   LAPACKE interface :  Fast linear algebra routines
   SCALAPACK package :  Parallel linear algebra routines


Your calculation utilizes the basis: 6-31G
Cite in your paper:
H - He: W.J. Hehre, R. Ditchfield and J.A. Pople, J. Chem. Phys. 56,
Li - Ne: 2257 (1972).  Note: Li and B come from J.D. Dill and J.A.
         Pople, J. Chem. Phys. 62, 2921 (1975).
Na - Ar: M.M. Francl, W.J. Pietro, W.J. Hehre, J.S. Binkley, M.S. Gordon,
         D.J. DeFrees and J.A. Pople, J. Chem. Phys. 77, 3654 (1982)
K  - Zn: V. Rassolov, J.A. Pople, M. Ratner and T.L. Windus, J. Chem. Phys.
         (accepted, 1998)
Note: He and Ne are unpublished basis sets taken from the Gaussian program

Your calculation utilizes diff. fcns from basis: 6-311++G(2d,2p)
Cite in your paper:
H, Li - Ne: R. Krishnan, J.S. Binkley, R. Seeger and J.A. Pople,
            J. Chem. Phys. 72, 650 (1980)
Na - Ar:    A.D. McLean and G.S. Chandler J. Chem. Phys. 72, 5639, (1980).
K  - Ca:    J-P. Blaudeau, M. P. McGrath, L.A. Curtiss and L. Radom,
            J. Chem. Phys. 107, 5016 (1997).
Ga - Kr:    L. A. Curtiss, M. P. McGrath, J-P. Blandeau, N. E. Davis,
            R. C. Binning, Jr. L. Radom, J. Chem. Phys. 103, 6104 (1995).
H - Ar:  R. Krishnan, J.S. Binkley, R. Seeger, J.A. Pople, J. Chem. Phys. 72,650 (1980)
H, Li-Cl: T. Clark, J. Chandrasekhar, P.V.R. Schleyer, J. Comp. Chem. 4, 294 (1983)

================================================================================
                                        WARNINGS
                       Please study these warnings very carefully!
================================================================================
Now building the actual basis set

WARNING: Geometry Optimization
  ===> : Switching off AutoStart
         For restart on a previous wavefunction, please use MOREAD


INFO   : the flag for use of LIBINT has been found!

================================================================================
                                       INPUT FILE
================================================================================
NAME = Test.inp
|  1> ! RKS B3LYP 6-31+G** NormalSCF Opt NOSOSCF CHELPG PAL8
|  2> 
|  3> *xyz 0 1
|  4> C -1.70534 -0.68263 0.02216
|  5> C -2.36340 0.52802 -0.02091
|  6> C -3.79460 0.39768 -0.00944
|  7> H -1.83313 1.47211 -0.05416
|  8> S -2.80022 -1.98678 0.06698
|  9> C -4.15605 -0.94289 0.03783
| 10> C -4.79131 1.53202 -0.03432
| 11> C -4.19867 2.93876 -0.13928
| 12> H -5.39729 1.47005 0.87906
| 13> H -5.47073 1.37265 -0.88189
| 14> C -5.30135 3.99951 -0.12137
| 15> H -3.61669 3.03050 -1.06486
| 16> H -3.51019 3.11989 0.69538
| 17> C -4.73173 5.40420 -0.23490
| 18> H -5.87639 3.92047 0.80874
| 19> H -5.99890 3.82671 -0.94919
| 20> H -4.04743 5.61881 0.59206
| 21> H -5.53912 6.14283 -0.20776
| 22> H -4.18652 5.53151 -1.17544
| 23> C 2.21191 -0.68263 0.02216
| 24> C 1.55385 0.52802 -0.02091
| 25> C 0.12265 0.39768 -0.00944
| 26> H 2.08412 1.47211 -0.05416
| 27> S 1.11703 -1.98678 0.06698
| 28> C -0.23880 -0.94289 0.03783
| 29> C -0.87406 1.53202 -0.03432
| 30> C -0.28142 2.93876 -0.13928
| 31> H -1.48004 1.47005 0.87906
| 32> H -1.55348 1.37265 -0.88189
| 33> C -1.38410 3.99951 -0.12137
| 34> H 0.30056 3.03050 -1.06486
| 35> H 0.40706 3.11989 0.69538
| 36> C -0.81448 5.40420 -0.23490
| 37> H -1.95914 3.92047 0.80874
| 38> H -2.08165 3.82671 -0.94919
| 39> H -0.13018 5.61881 0.59206
| 40> H -1.62187 6.14283 -0.20776
| 41> H -0.26927 5.53151 -1.17544
| 42> C 6.12916 -0.68263 0.02216
| 43> C 5.47110 0.52802 -0.02091
| 44> C 4.03990 0.39768 -0.00944
| 45> H 6.00137 1.47211 -0.05416
| 46> S 5.03428 -1.98678 0.06698
| 47> C 3.67845 -0.94289 0.03783
| 48> C 3.04319 1.53202 -0.03432
| 49> C 3.63583 2.93876 -0.13928
| 50> H 2.43721 1.47005 0.87906
| 51> H 2.36377 1.37265 -0.88189
| 52> C 2.53315 3.99951 -0.12137
| 53> H 4.21781 3.03050 -1.06486
| 54> H 4.32431 3.11989 0.69538
| 55> C 3.10277 5.40420 -0.23490
| 56> H 1.95811 3.92047 0.80874
| 57> H 1.83560 3.82671 -0.94919
| 58> H 3.78707 5.61881 0.59206
| 59> H 2.29538 6.14283 -0.20776
| 60> H 3.64798 5.53151 -1.17544
| 61> C 10.04641 -0.68263 0.02216
| 62> C 9.38835 0.52802 -0.02091
| 63> C 7.95715 0.39768 -0.00944
| 64> H 9.91862 1.47211 -0.05416
| 65> S 8.95153 -1.98678 0.06698
| 66> C 7.59570 -0.94289 0.03783
| 67> C 6.96044 1.53202 -0.03432
| 68> C 7.55308 2.93876 -0.13928
| 69> H 6.35446 1.47005 0.87906
| 70> H 6.28102 1.37265 -0.88189
| 71> C 6.45040 3.99951 -0.12137
| 72> H 8.13506 3.03050 -1.06486
| 73> H 8.24156 3.11989 0.69538
| 74> C 7.02002 5.40420 -0.23490
| 75> H 5.87536 3.92047 0.80874
| 76> H 5.75285 3.82671 -0.94919
| 77> H 7.70432 5.61881 0.59206
| 78> H 6.21263 6.14283 -0.20776
| 79> H 7.56523 5.53151 -1.17544
| 80> C 13.96366 -0.68263 0.02216
| 81> C 13.30560 0.52802 -0.02091
| 82> C 11.87440 0.39768 -0.00944
| 83> H 13.83587 1.47211 -0.05416
| 84> S 12.86878 -1.98678 0.06698
| 85> C 11.51295 -0.94289 0.03783
| 86> C 10.87769 1.53202 -0.03432
| 87> C 11.47033 2.93876 -0.13928
| 88> H 10.27171 1.47005 0.87906
| 89> H 10.19827 1.37265 -0.88189
| 90> C 10.36765 3.99951 -0.12137
| 91> H 12.05231 3.03050 -1.06486
| 92> H 12.15881 3.11989 0.69538
| 93> C 10.93727 5.40420 -0.23490
| 94> H 9.79261 3.92047 0.80874
| 95> H 9.67010 3.82671 -0.94919
| 96> H 11.62157 5.61881 0.59206
| 97> H 10.12988 6.14283 -0.20776
| 98> H 11.48248 5.53151 -1.17544
| 99> **                         ****END OF INPUT****
================================================================================

                       *****************************
                       * Geometry Optimization Run *
                       *****************************

Geometry optimization settings:
Update method            Update   .... BFGS
Choice of coordinates    CoordSys .... Redundant Internals
Initial Hessian          InHess   .... Almoef's Model

Convergence Tolerances:
Energy Change            TolE     ....  5.0000e-06 Eh
Max. Gradient            TolMAXG  ....  3.0000e-04 Eh/bohr
RMS Gradient             TolRMSG  ....  1.0000e-04 Eh/bohr
Max. Displacement        TolMAXD  ....  4.0000e-03 bohr
RMS Displacement         TolRMSD  ....  2.0000e-03 bohr

------------------------------------------------------------------------------
                        ORCA OPTIMIZATION COORDINATE SETUP
------------------------------------------------------------------------------

The optimization will be done in new redundant internal coordinates
Making redundant internal coordinates   ...  (new redundants) done
Evaluating the initial hessian          ...  (Almloef) done
Evaluating the coordinates              ...  done
Calculating the B-matrix                .... done
Calculating the G-matrix                .... done
Diagonalizing the G-matrix              .... done
Small eigenvalue found = 6.972e-04
Small eigenvalue found = 1.676e-03
Small eigenvalue found = 2.670e-03
Small eigenvalue found = 3.150e-03
Small eigenvalue found = 4.016e-03
Small eigenvalue found = 6.416e-03
Small eigenvalue found = 6.739e-03
Small eigenvalue found = 7.402e-03
Small eigenvalue found = 1.036e-02
Small eigenvalue found = 1.358e-02
Small eigenvalue found = 1.457e-02
Small eigenvalue found = 1.837e-02
Small eigenvalue found = 1.999e-02
Small eigenvalue found = 2.342e-02
The first mode is                       ....  452
The number of degrees of freedom        ....  279

    -----------------------------------------------------------------
                    Redundant Internal Coordinates


    -----------------------------------------------------------------
         Definition                    Initial Value    Approx d2E/dq
    -----------------------------------------------------------------
      1. B(C   1,C   0)                  1.3786         0.651489   
      2. B(C   2,C   1)                  1.4372         0.525393   
      3. B(H   3,C   1)                  1.0833         0.369036   
      4. B(S   4,C   0)                  1.7034         0.532713   
      5. B(C   5,S   4)                  1.7114         0.517322   
      6. B(C   5,C   2)                  1.3892         0.626526   
      7. B(C   6,C   2)                  1.5102         0.401725   
      8. B(C   7,C   6)                  1.5301         0.373460   
      9. B(H   8,C   6)                  1.0979         0.349840   
     10. B(H   9,C   6)                  1.0979         0.349799   
     11. B(C  10,C   7)                  1.5302         0.373344   
     12. B(H  11,C   7)                  1.0972         0.350719   
     13. B(H  12,C   7)                  1.0970         0.350922   
     14. B(C  13,C  10)                  1.5200         0.387502   
     15. B(H  14,C  10)                  1.0964         0.351774   
     16. B(H  15,C  10)                  1.0962         0.351951   
     17. B(H  16,C  13)                  1.0946         0.354044   
     18. B(H  17,C  13)                  1.0946         0.354042   
     19. B(H  18,C  13)                  1.0946         0.354109   
     20. B(C  20,C  19)                  1.3786         0.651489   
     21. B(C  21,C  20)                  1.4372         0.525393   
     22. B(H  22,C  20)                  1.0833         0.369036   
     23. B(S  23,C  19)                  1.7034         0.532713   
     24. B(C  24,S  23)                  1.7114         0.517322   
     25. B(C  24,C   0)                  1.4895         0.433445   
     26. B(C  24,C  21)                  1.3892         0.626526   
     27. B(C  25,C  21)                  1.5102         0.401725   
     28. B(C  25,H   3)                  0.9611         0.578102   
     29. B(C  25,C   1)                  1.7962         0.140499   
     30. B(C  26,C  25)                  1.5301         0.373460   
     31. B(H  27,C  25)                  1.0979         0.349840   
     32. B(H  28,C  25)                  1.0979         0.349799   
     33. B(C  29,C  26)                  1.5302         0.373344   
     34. B(H  30,C  26)                  1.0972         0.350719   
     35. B(H  31,C  26)                  1.0970         0.350922   
     36. B(C  32,C  29)                  1.5200         0.387502   
     37. B(H  33,C  29)                  1.0964         0.351774   
     38. B(H  34,C  29)                  1.0962         0.351951   
     39. B(H  35,C  32)                  1.0946         0.354044   
     40. B(H  36,C  32)                  1.0946         0.354042   
     41. B(H  37,C  32)                  1.0946         0.354109   
     42. B(C  39,C  38)                  1.3786         0.651489   
     43. B(C  40,C  39)                  1.4372         0.525393   
     44. B(H  41,C  39)                  1.0833         0.369036   
     45. B(S  42,C  38)                  1.7034         0.532713   
     46. B(C  43,S  42)                  1.7114         0.517322   
     47. B(C  43,C  40)                  1.3892         0.626526   
     48. B(C  43,C  19)                  1.4895         0.433445   
     49. B(C  44,C  40)                  1.5102         0.401725   
     50. B(C  44,H  22)                  0.9611         0.578102   
     51. B(C  44,C  20)                  1.7962         0.140499   
     52. B(C  45,C  44)                  1.5301         0.373460   
     53. B(H  46,C  44)                  1.0979         0.349840   
     54. B(H  47,C  44)                  1.0979         0.349799   
     55. B(C  48,C  45)                  1.5302         0.373344   
     56. B(H  49,C  45)                  1.0972         0.350719   
     57. B(H  50,C  45)                  1.0970         0.350922   
     58. B(C  51,C  48)                  1.5200         0.387502   
     59. B(H  52,C  48)                  1.0964         0.351774   
     60. B(H  53,C  48)                  1.0962         0.351951   
     61. B(H  54,C  51)                  1.0946         0.354044   
     62. B(H  55,C  51)                  1.0946         0.354042   
     63. B(H  56,C  51)                  1.0946         0.354109   
     64. B(C  58,C  57)                  1.3786         0.651489   
     65. B(C  59,C  58)                  1.4372         0.525393   
     66. B(H  60,C  58)                  1.0833         0.369036   
     67. B(S  61,C  57)                  1.7034         0.532713   
     68. B(C  62,S  61)                  1.7114         0.517322   
     69. B(C  62,C  59)                  1.3892         0.626526   
     70. B(C  62,C  38)                  1.4895         0.433445   
     71. B(C  63,C  59)                  1.5102         0.401725   
     72. B(C  63,H  41)                  0.9611         0.578102   
     73. B(C  63,C  39)                  1.7962         0.140499   
     74. B(C  64,C  63)                  1.5301         0.373460   
     75. B(H  65,C  63)                  1.0979         0.349840   
     76. B(H  66,C  63)                  1.0979         0.349799   
     77. B(C  67,C  64)                  1.5302         0.373344   
     78. B(H  68,C  64)                  1.0972         0.350719   
     79. B(H  69,C  64)                  1.0970         0.350922   
     80. B(C  70,C  67)                  1.5200         0.387502   
     81. B(H  71,C  67)                  1.0964         0.351774   
     82. B(H  72,C  67)                  1.0962         0.351951   
     83. B(H  73,C  70)                  1.0946         0.354044   
     84. B(H  74,C  70)                  1.0946         0.354042   
     85. B(H  75,C  70)                  1.0946         0.354109   
     86. B(C  77,C  76)                  1.3786         0.651489   
     87. B(C  78,C  77)                  1.4372         0.525393   
     88. B(H  79,C  77)                  1.0833         0.369036   
     89. B(S  80,C  76)                  1.7034         0.532713   
     90. B(C  81,S  80)                  1.7114         0.517322   
     91. B(C  81,C  78)                  1.3892         0.626526   
     92. B(C  81,C  57)                  1.4895         0.433445   
     93. B(C  82,C  78)                  1.5102         0.401725   
     94. B(C  82,H  60)                  0.9611         0.578102   
     95. B(C  82,C  58)                  1.7962         0.140499   
     96. B(C  83,C  82)                  1.5301         0.373460   
     97. B(H  84,C  82)                  1.0979         0.349840   
     98. B(H  85,C  82)                  1.0979         0.349799   
     99. B(C  86,C  83)                  1.5302         0.373344   
    100. B(H  87,C  83)                  1.0972         0.350719   
    101. B(H  88,C  83)                  1.0970         0.350922   
    102. B(C  89,C  86)                  1.5200         0.387502   
    103. B(H  90,C  86)                  1.0964         0.351774   
    104. B(H  91,C  86)                  1.0962         0.351951   
    105. B(H  92,C  89)                  1.0946         0.354044   
    106. B(H  93,C  89)                  1.0946         0.354042   
    107. B(H  94,C  89)                  1.0946         0.354109   
    108. A(C   1,C   0,S   4)          111.4905         0.449847   
    109. A(C   1,C   0,C  24)          128.5892         0.410800   
    110. A(S   4,C   0,C  24)          119.9198         0.418054   
    111. A(C   0,C   1,C  25)           95.4688         0.338372   
    112. A(H   3,C   1,C  25)           26.7210         0.278644   
    113. A(C   2,C   1,H   3)          124.5226         0.344616   
    114. A(C   0,C   1,C   2)          113.2947         0.425122   
    115. A(C   0,C   1,H   3)          122.1819         0.357370   
    116. A(C   2,C   1,C  25)          151.2196         0.326522   
    117. A(C   1,C   2,C   6)          126.0849         0.390280   
    118. A(C   5,C   2,C   6)          123.6171         0.402527   
    119. A(C   1,C   2,C   5)          110.2967         0.422162   
    120. A(C   1,H   3,C  25)          122.8276         0.314916   
    121. A(C   0,S   4,C   5)           92.3941         0.455541   
    122. A(C   2,C   5,S   4)          112.5229         0.444304   
    123. A(H   8,C   6,H   9)          107.0076         0.288210   
    124. A(C   7,C   6,H   9)          108.6745         0.322762   
    125. A(C   2,C   6,H   8)          107.9494         0.326660   
    126. A(C   2,C   6,C   7)          115.8530         0.367881   
    127. A(C   7,C   6,H   8)          108.8296         0.322768   
    128. A(C   2,C   6,H   9)          108.1861         0.326654   
    129. A(C   6,C   7,C  10)          110.9420         0.363294   
    130. A(C  10,C   7,H  11)          109.5210         0.322884   
    131. A(C  10,C   7,H  12)          109.2016         0.322915   
    132. A(C   6,C   7,H  11)          109.8885         0.322901   
    133. A(H  11,C   7,H  12)          107.1661         0.288468   
    134. A(C   6,C   7,H  12)          110.0407         0.322931   
    135. A(H  14,C  10,H  15)          107.1892         0.288736   
    136. A(C  13,C  10,H  15)          109.1306         0.325050   
    137. A(C  13,C  10,H  14)          109.0586         0.325023   
    138. A(C   7,C  10,H  15)          109.9033         0.323070   
    139. A(C   7,C  10,H  14)          109.7501         0.323043   
    140. A(C   7,C  10,C  13)          111.6970         0.365595   
    141. A(H  16,C  13,H  17)          108.0641         0.289295   
    142. A(C  10,C  13,H  18)          110.9973         0.325377   
    143. A(C  10,C  13,H  17)          110.2012         0.325367   
    144. A(C  10,C  13,H  16)          111.0403         0.325367   
    145. A(H  17,C  13,H  18)          108.0727         0.289304   
    146. A(H  16,C  13,H  18)          108.3592         0.289304   
    147. A(C  20,C  19,C  43)          128.5892         0.410800   
    148. A(S  23,C  19,C  43)          119.9198         0.418054   
    149. A(C  20,C  19,S  23)          111.4905         0.449847   
    150. A(C  21,C  20,H  22)          124.5226         0.344616   
    151. A(C  19,C  20,C  44)           95.4688         0.338372   
    152. A(H  22,C  20,C  44)           26.7210         0.278644   
    153. A(C  21,C  20,C  44)          151.2196         0.326522   
    154. A(C  19,C  20,H  22)          122.1819         0.357370   
    155. A(C  19,C  20,C  21)          113.2947         0.425122   
    156. A(C  20,C  21,C  25)          126.0849         0.390280   
    157. A(C  24,C  21,C  25)          123.6171         0.402527   
    158. A(C  20,C  21,C  24)          110.2967         0.422162   
    159. A(C  20,H  22,C  44)          122.8276         0.314916   
    160. A(C  19,S  23,C  24)           92.3941         0.455541   
    161. A(C  21,C  24,S  23)          112.5229         0.444304   
    162. A(C   0,C  24,S  23)          152.4698         0.415878   
    163. A(C   0,C  24,C  21)           95.0025         0.407967   
    164. A(H   3,C  25,H  28)           50.0227         0.312195   
    165. A(C   1,C  25,H  28)           53.9501         0.276360   
    166. A(C  26,C  25,H  27)          108.8296         0.322768   
    167. A(C  21,C  25,H  27)          107.9494         0.326660   
    168. A(H   3,C  25,H  27)           57.5126         0.312201   
    169. A(C  21,C  25,H  28)          108.1861         0.326654   
    170. A(C  21,C  25,C  26)          115.8530         0.367881   
    171. A(H   3,C  25,C  26)          116.2559         0.350913   
    172. A(C   1,C  25,C  21)           97.3116         0.312523   
    173. A(C   1,C  25,C  26)          146.6749         0.308862   
    174. A(C   1,C  25,H  27)           60.3021         0.276365   
    175. A(H   3,C  25,C  21)          127.7395         0.355274   
    176. A(C   1,C  25,H   3)           30.4514         0.298924   
    177. A(H  27,C  25,H  28)          107.0076         0.288210   
    178. A(C  26,C  25,H  28)          108.6745         0.322762   
    179. A(H  30,C  26,H  31)          107.1661         0.288468   
    180. A(C  29,C  26,H  31)          109.2016         0.322915   
    181. A(C  25,C  26,H  31)          110.0407         0.322931   
    182. A(C  29,C  26,H  30)          109.5210         0.322884   
    183. A(C  25,C  26,H  30)          109.8885         0.322901   
    184. A(C  25,C  26,C  29)          110.9420         0.363294   
    185. A(C  26,C  29,H  33)          109.7501         0.323043   
    186. A(H  33,C  29,H  34)          107.1892         0.288736   
    187. A(C  32,C  29,H  34)          109.1306         0.325050   
    188. A(C  26,C  29,H  34)          109.9033         0.323070   
    189. A(C  32,C  29,H  33)          109.0586         0.325023   
    190. A(C  26,C  29,C  32)          111.6970         0.365595   
    191. A(H  36,C  32,H  37)          108.0727         0.289304   
    192. A(C  29,C  32,H  37)          110.9973         0.325377   
    193. A(H  35,C  32,H  36)          108.0641         0.289295   
    194. A(H  35,C  32,H  37)          108.3592         0.289304   
    195. A(C  29,C  32,H  36)          110.2012         0.325367   
    196. A(C  29,C  32,H  35)          111.0403         0.325367   
    197. A(C  39,C  38,S  42)          111.4905         0.449847   
    198. A(S  42,C  38,C  62)          119.9198         0.418054   
    199. A(C  39,C  38,C  62)          128.5892         0.410800   
    200. A(C  40,C  39,H  41)          124.5226         0.344616   
    201. A(C  38,C  39,H  41)          122.1819         0.357370   
    202. A(C  38,C  39,C  40)          113.2947         0.425122   
    203. A(H  41,C  39,C  63)           26.7210         0.278644   
    204. A(C  40,C  39,C  63)          151.2196         0.326522   
    205. A(C  38,C  39,C  63)           95.4688         0.338372   
    206. A(C  43,C  40,C  44)          123.6171         0.402527   
    207. A(C  39,C  40,C  44)          126.0849         0.390280   
    208. A(C  39,C  40,C  43)          110.2967         0.422162   
    209. A(C  39,H  41,C  63)          122.8276         0.314916   
    210. A(C  38,S  42,C  43)           92.3941         0.455541   
    211. A(C  40,C  43,S  42)          112.5229         0.444304   
    212. A(C  19,C  43,S  42)          152.4698         0.415878   
    213. A(C  19,C  43,C  40)           95.0025         0.407967   
    214. A(H  46,C  44,H  47)          107.0076         0.288210   
    215. A(C  45,C  44,H  47)          108.6745         0.322762   
    216. A(C  40,C  44,H  47)          108.1861         0.326654   
    217. A(H  22,C  44,H  47)           50.0227         0.312195   
    218. A(C  20,C  44,H  47)           53.9501         0.276360   
    219. A(C  45,C  44,H  46)          108.8296         0.322768   
    220. A(C  40,C  44,H  46)          107.9494         0.326660   
    221. A(H  22,C  44,H  46)           57.5126         0.312201   
    222. A(H  22,C  44,C  40)          127.7395         0.355274   
    223. A(H  22,C  44,C  45)          116.2559         0.350913   
    224. A(C  20,C  44,C  45)          146.6749         0.308862   
    225. A(C  20,C  44,H  46)           60.3021         0.276365   
    226. A(C  20,C  44,C  40)           97.3116         0.312523   
    227. A(C  40,C  44,C  45)          115.8530         0.367881   
    228. A(C  20,C  44,H  22)           30.4514         0.298924   
    229. A(H  49,C  45,H  50)          107.1661         0.288468   
    230. A(C  48,C  45,H  50)          109.2016         0.322915   
    231. A(C  44,C  45,H  50)          110.0407         0.322931   
    232. A(C  48,C  45,H  49)          109.5210         0.322884   
    233. A(C  44,C  45,H  49)          109.8885         0.322901   
    234. A(C  44,C  45,C  48)          110.9420         0.363294   
    235. A(H  52,C  48,H  53)          107.1892         0.288736   
    236. A(C  51,C  48,H  53)          109.1306         0.325050   
    237. A(C  45,C  48,H  53)          109.9033         0.323070   
    238. A(C  51,C  48,H  52)          109.0586         0.325023   
    239. A(C  45,C  48,H  52)          109.7501         0.323043   
    240. A(C  45,C  48,C  51)          111.6970         0.365595   
    241. A(H  55,C  51,H  56)          108.0727         0.289304   
    242. A(H  54,C  51,H  56)          108.3592         0.289304   
    243. A(C  48,C  51,H  56)          110.9973         0.325377   
    244. A(H  54,C  51,H  55)          108.0641         0.289295   
    245. A(C  48,C  51,H  55)          110.2012         0.325367   
    246. A(C  48,C  51,H  54)          111.0403         0.325367   
    247. A(S  61,C  57,C  81)          119.9198         0.418054   
    248. A(C  58,C  57,C  81)          128.5892         0.410800   
    249. A(C  58,C  57,S  61)          111.4905         0.449847   
    250. A(H  60,C  58,C  82)           26.7210         0.278644   
    251. A(C  59,C  58,C  82)          151.2196         0.326522   
    252. A(C  57,C  58,C  82)           95.4688         0.338372   
    253. A(C  59,C  58,H  60)          124.5226         0.344616   
    254. A(C  57,C  58,H  60)          122.1819         0.357370   
    255. A(C  57,C  58,C  59)          113.2947         0.425122   
    256. A(C  62,C  59,C  63)          123.6171         0.402527   
    257. A(C  58,C  59,C  63)          126.0849         0.390280   
    258. A(C  58,C  59,C  62)          110.2967         0.422162   
    259. A(C  58,H  60,C  82)          122.8276         0.314916   
    260. A(C  57,S  61,C  62)           92.3941         0.455541   
    261. A(C  59,C  62,S  61)          112.5229         0.444304   
    262. A(C  38,C  62,S  61)          152.4698         0.415878   
    263. A(C  38,C  62,C  59)           95.0025         0.407967   
    264. A(H  65,C  63,H  66)          107.0076         0.288210   
    265. A(C  64,C  63,H  66)          108.6745         0.322762   
    266. A(C  59,C  63,H  66)          108.1861         0.326654   
    267. A(H  41,C  63,H  66)           50.0227         0.312195   
    268. A(C  39,C  63,H  66)           53.9501         0.276360   
    269. A(C  64,C  63,H  65)          108.8296         0.322768   
    270. A(C  59,C  63,H  65)          107.9494         0.326660   
    271. A(H  41,C  63,H  65)           57.5126         0.312201   
    272. A(C  39,C  63,H  65)           60.3021         0.276365   
    273. A(C  59,C  63,C  64)          115.8530         0.367881   
    274. A(H  41,C  63,C  64)          116.2559         0.350913   
    275. A(C  39,C  63,C  64)          146.6749         0.308862   
    276. A(H  41,C  63,C  59)          127.7395         0.355274   
    277. A(C  39,C  63,C  59)           97.3116         0.312523   
    278. A(C  39,C  63,H  41)           30.4514         0.298924   
    279. A(H  68,C  64,H  69)          107.1661         0.288468   
    280. A(C  67,C  64,H  69)          109.2016         0.322915   
    281. A(C  63,C  64,H  69)          110.0407         0.322931   
    282. A(C  67,C  64,H  68)          109.5210         0.322884   
    283. A(C  63,C  64,H  68)          109.8885         0.322901   
    284. A(C  63,C  64,C  67)          110.9420         0.363294   
    285. A(H  71,C  67,H  72)          107.1892         0.288736   
    286. A(C  70,C  67,H  72)          109.1306         0.325050   
    287. A(C  64,C  67,H  72)          109.9033         0.323070   
    288. A(C  70,C  67,H  71)          109.0586         0.325023   
    289. A(C  64,C  67,H  71)          109.7501         0.323043   
    290. A(C  64,C  67,C  70)          111.6970         0.365595   
    291. A(H  74,C  70,H  75)          108.0727         0.289304   
    292. A(H  73,C  70,H  75)          108.3592         0.289304   
    293. A(C  67,C  70,H  75)          110.9973         0.325377   
    294. A(H  73,C  70,H  74)          108.0641         0.289295   
    295. A(C  67,C  70,H  74)          110.2012         0.325367   
    296. A(C  67,C  70,H  73)          111.0403         0.325367   
    297. A(C  77,C  76,S  80)          111.4905         0.449847   
    298. A(C  78,C  77,H  79)          124.5226         0.344616   
    299. A(C  76,C  77,H  79)          122.1819         0.357370   
    300. A(C  76,C  77,C  78)          113.2947         0.425122   
    301. A(C  81,C  78,C  82)          123.6171         0.402527   
    302. A(C  77,C  78,C  82)          126.0849         0.390280   
    303. A(C  77,C  78,C  81)          110.2967         0.422162   
    304. A(C  76,S  80,C  81)           92.3941         0.455541   
    305. A(C  78,C  81,S  80)          112.5229         0.444304   
    306. A(C  57,C  81,S  80)          152.4698         0.415878   
    307. A(C  57,C  81,C  78)           95.0025         0.407967   
    308. A(C  83,C  82,H  85)          108.6745         0.322762   
    309. A(C  78,C  82,H  85)          108.1861         0.326654   
    310. A(H  60,C  82,H  85)           50.0227         0.312195   
    311. A(C  58,C  82,H  85)           53.9501         0.276360   
    312. A(C  83,C  82,H  84)          108.8296         0.322768   
    313. A(C  78,C  82,H  84)          107.9494         0.326660   
    314. A(H  60,C  82,H  84)           57.5126         0.312201   
    315. A(C  58,C  82,H  84)           60.3021         0.276365   
    316. A(C  78,C  82,C  83)          115.8530         0.367881   
    317. A(H  60,C  82,C  83)          116.2559         0.350913   
    318. A(C  58,C  82,C  83)          146.6749         0.308862   
    319. A(H  60,C  82,C  78)          127.7395         0.355274   
    320. A(C  58,C  82,C  78)           97.3116         0.312523   
    321. A(H  84,C  82,H  85)          107.0076         0.288210   
    322. A(C  58,C  82,H  60)           30.4514         0.298924   
    323. A(H  87,C  83,H  88)          107.1661         0.288468   
    324. A(C  86,C  83,H  88)          109.2016         0.322915   
    325. A(C  82,C  83,H  88)          110.0407         0.322931   
    326. A(C  86,C  83,H  87)          109.5210         0.322884   
    327. A(C  82,C  83,H  87)          109.8885         0.322901   
    328. A(C  82,C  83,C  86)          110.9420         0.363294   
    329. A(H  90,C  86,H  91)          107.1892         0.288736   
    330. A(C  89,C  86,H  91)          109.1306         0.325050   
    331. A(C  83,C  86,H  91)          109.9033         0.323070   
    332. A(C  89,C  86,H  90)          109.0586         0.325023   
    333. A(C  83,C  86,H  90)          109.7501         0.323043   
    334. A(C  83,C  86,C  89)          111.6970         0.365595   
    335. A(H  93,C  89,H  94)          108.0727         0.289304   
    336. A(H  92,C  89,H  94)          108.3592         0.289304   
    337. A(C  86,C  89,H  94)          110.9973         0.325377   
    338. A(H  92,C  89,H  93)          108.0641         0.289295   
    339. A(C  86,C  89,H  93)          110.2012         0.325367   
    340. A(C  86,C  89,H  92)          111.0403         0.325367   
    341. D(C   2,C   1,C   0,S   4)      0.3534         0.032139   
    342. D(C  25,C   1,C   0,S   4)    179.3425         0.032139   
    343. D(C  25,C   1,C   0,C  24)     -0.3991         0.032139   
    344. D(C   2,C   1,C   0,C  24)   -179.3883         0.032139   
    345. D(H   3,C   1,C   0,C  24)      0.2943         0.032139   
    346. D(H   3,C   1,C   0,S   4)   -179.9641         0.032139   
    347. D(C   5,C   2,C   1,H   3)   -179.9104         0.020426   
    348. D(C   6,C   2,C   1,C  25)      1.4455         0.020426   
    349. D(C   5,C   2,C   1,C  25)   -178.1461         0.020426   
    350. D(C   5,C   2,C   1,C   0)     -0.2365         0.020426   
    351. D(C   6,C   2,C   1,H   3)     -0.3188         0.020426   
    352. D(C   6,C   2,C   1,C   0)    179.3552         0.020426   
    353. D(C  25,H   3,C   1,C   0)     -1.5352         0.128952   
    354. D(C  25,H   3,C   1,C   2)    178.1109         0.128952   
    355. D(C   5,S   4,C   0,C   1)     -0.2906         0.005733   
    356. D(C   5,S   4,C   0,C  24)    179.4765         0.005733   
    357. D(S   4,C   5,C   2,C   6)   -179.5891         0.024661   
    358. D(C   2,C   5,S   4,C   0)      0.1562         0.005005   
    359. D(S   4,C   5,C   2,C   1)      0.0146         0.024661   
    360. D(H   8,C   6,C   2,C   1)   -119.6144         0.011972   
    361. D(H   8,C   6,C   2,C   5)     59.9257         0.011972   
    362. D(H   9,C   6,C   2,C   5)    -55.5450         0.011972   
    363. D(H   9,C   6,C   2,C   1)    124.9150         0.011972   
    364. D(C   7,C   6,C   2,C   1)      2.6596         0.011972   
    365. D(C   7,C   6,C   2,C   5)   -177.8003         0.011972   
    366. D(H  11,C   7,C   6,H   9)    -61.8863         0.011137   
    367. D(H  12,C   7,C   6,C   2)    -57.6688         0.011137   
    368. D(H  11,C   7,C   6,C   2)     60.1099         0.011137   
    369. D(C  10,C   7,C   6,H   8)    -56.8232         0.011137   
    370. D(C  10,C   7,C   6,C   2)   -178.6296         0.011137   
    371. D(H  11,C   7,C   6,H   8)   -178.0837         0.011137   
    372. D(C  10,C   7,C   6,H   9)     59.3742         0.011137   
    373. D(H  12,C   7,C   6,H   9)   -179.6649         0.011137   
    374. D(H  12,C   7,C   6,H   8)     64.1377         0.011137   
    375. D(H  15,C  10,C   7,H  12)   -179.7688         0.011131   
    376. D(H  15,C  10,C   7,H  11)     63.1623         0.011131   
    377. D(C  13,C  10,C   7,C   6)   -179.5911         0.011131   
    378. D(H  14,C  10,C   7,C   6)     59.3275         0.011131   
    379. D(H  14,C  10,C   7,H  11)   -179.1961         0.011131   
    380. D(C  13,C  10,C   7,H  11)    -58.1147         0.011131   
    381. D(H  14,C  10,C   7,H  12)    -62.1272         0.011131   
    382. D(H  15,C  10,C   7,C   6)    -58.3141         0.011131   
    383. D(C  13,C  10,C   7,H  12)     58.9542         0.011131   
    384. D(H  17,C  13,C  10,H  14)    -57.8512         0.011945   
    385. D(H  16,C  13,C  10,H  14)     61.8547         0.011945   
    386. D(H  18,C  13,C  10,H  15)    -60.7465         0.011945   
    387. D(H  16,C  13,C  10,H  15)    178.6485         0.011945   
    388. D(H  16,C  13,C  10,C   7)    -59.6275         0.011945   
    389. D(H  18,C  13,C  10,H  14)   -177.5402         0.011945   
    390. D(H  18,C  13,C  10,C   7)     60.9775         0.011945   
    391. D(H  17,C  13,C  10,H  15)     58.9425         0.011945   
    392. D(H  17,C  13,C  10,C   7)   -179.3335         0.011945   
    393. D(H  22,C  20,C  19,S  23)   -179.9641         0.032139   
    394. D(C  44,C  20,C  19,S  23)    179.3425         0.032139   
    395. D(C  44,C  20,C  19,C  43)     -0.3991         0.032139   
    396. D(H  22,C  20,C  19,C  43)      0.2943         0.032139   
    397. D(C  21,C  20,C  19,S  23)      0.3534         0.032139   
    398. D(C  21,C  20,C  19,C  43)   -179.3883         0.032139   
    399. D(C  25,C  21,C  20,C  19)    179.3552         0.020426   
    400. D(C  24,C  21,C  20,H  22)   -179.9104         0.020426   
    401. D(C  25,C  21,C  20,H  22)     -0.3188         0.020426   
    402. D(C  24,C  21,C  20,C  44)   -178.1461         0.020426   
    403. D(C  24,C  21,C  20,C  19)     -0.2365         0.020426   
    404. D(C  25,C  21,C  20,C  44)      1.4455         0.020426   
    405. D(C  44,H  22,C  20,C  19)     -1.5352         0.128952   
    406. D(C  44,H  22,C  20,C  21)    178.1109         0.128952   
    407. D(C  24,S  23,C  19,C  43)    179.4765         0.005733   
    408. D(C  24,S  23,C  19,C  20)     -0.2906         0.005733   
    409. D(C  21,C  24,S  23,C  19)      0.1562         0.005480   
    410. D(C   0,C  24,S  23,C  19)    179.0182         0.005480   
    411. D(S  23,C  24,C  21,C  25)   -179.5891         0.027197   
    412. D(S  23,C  24,C  21,C  20)      0.0146         0.027197   
    413. D(C   0,C  24,C  21,C  25)      0.9389         0.027197   
    414. D(S  23,C  24,C   0,C   1)   -179.1456         0.012830   
    415. D(S  23,C  24,C   0,S   4)      1.1317         0.012830   
    416. D(C   0,C  24,C  21,C  20)   -179.4574         0.027197   
    417. D(C  21,C  24,C   0,S   4)   -179.9234         0.012830   
    418. D(C  21,C  24,C   0,C   1)     -0.2008         0.012830   
    419. D(H  28,C  25,C  21,C  24)    -55.5450         0.013585   
    420. D(H  28,C  25,C  21,C  20)    124.9150         0.013585   
    421. D(H  27,C  25,C  21,C  24)     59.9257         0.013585   
    422. D(C  26,C  25,C  21,C  20)      2.6596         0.013585   
    423. D(C  26,C  25,C  21,C  24)   -177.8003         0.013585   
    424. D(H   3,C  25,C  21,C  24)     -2.4791         0.013585   
    425. D(H   3,C  25,C  21,C  20)    177.9808         0.013585   
    426. D(C   1,C  25,C  21,C  24)     -1.1615         0.013585   
    427. D(C   1,C  25,C  21,C  20)    179.2984         0.013585   
    428. D(H  28,C  25,H   3,C   1)     84.8842         0.469484   
    429. D(H  27,C  25,C  21,C  20)   -119.6144         0.013585   
    430. D(C  21,C  25,H   3,C   1)      2.5793         0.469484   
    431. D(H  28,C  25,C   1,C   2)    -73.9723         0.002875   
    432. D(C  26,C  25,C   1,C   0)    175.2399         0.002875   
    433. D(H  28,C  25,C   1,C   0)    107.9564         0.002875   
    434. D(C  26,C  25,C   1,H   3)     -3.4549         0.002875   
    435. D(H  27,C  25,C   1,C   0)   -105.7784         0.002875   
    436. D(C  26,C  25,H   3,C   1)    177.8844         0.469484   
    437. D(H  28,C  25,C   1,H   3)    -70.7384         0.002875   
    438. D(H  27,C  25,C   1,C   2)     72.2930         0.002875   
    439. D(H  27,C  25,H   3,C   1)    -85.6531         0.469484   
    440. D(C  21,C  25,C   1,H   3)   -177.9438         0.002875   
    441. D(C  21,C  25,C   1,C   2)    178.8223         0.002875   
    442. D(C  21,C  25,C   1,C   0)      0.7510         0.002875   
    443. D(H   3,C  25,C   1,C   2)     -3.2338         0.002875   
    444. D(H   3,C  25,C   1,C   0)    178.6948         0.002875   
    445. D(C  26,C  25,C   1,C   2)     -6.6888         0.002875   
    446. D(H  27,C  25,C   1,H   3)     75.5268         0.002875   
    447. D(H  31,C  26,C  25,H  28)   -179.6649         0.012444   
    448. D(H  31,C  26,C  25,H  27)     64.1377         0.012444   
    449. D(H  31,C  26,C  25,H   3)    126.4559         0.012444   
    450. D(H  31,C  26,C  25,C   1)    128.4075         0.012444   
    451. D(H  30,C  26,C  25,H  28)    -61.8863         0.012444   
    452. D(H  30,C  26,C  25,H  27)   -178.0837         0.012444   
    453. D(H  30,C  26,C  25,C  21)     60.1099         0.012444   
    454. D(H  30,C  26,C  25,H   3)   -115.7655         0.012444   
    455. D(H  30,C  26,C  25,C   1)   -113.8139         0.012444   
    456. D(C  29,C  26,C  25,H  28)     59.3742         0.012444   
    457. D(C  29,C  26,C  25,H  27)    -56.8232         0.012444   
    458. D(H  31,C  26,C  25,C  21)    -57.6688         0.012444   
    459. D(C  29,C  26,C  25,C  21)   -178.6296         0.012444   
    460. D(C  29,C  26,C  25,H   3)      5.4950         0.012444   
    461. D(C  29,C  26,C  25,C   1)      7.4466         0.012444   
    462. D(H  33,C  29,C  26,H  31)    -62.1272         0.011131   
    463. D(H  33,C  29,C  26,H  30)   -179.1961         0.011131   
    464. D(H  33,C  29,C  26,C  25)     59.3275         0.011131   
    465. D(C  32,C  29,C  26,H  31)     58.9542         0.011131   
    466. D(C  32,C  29,C  26,H  30)    -58.1147         0.011131   
    467. D(C  32,C  29,C  26,C  25)   -179.5911         0.011131   
    468. D(H  34,C  29,C  26,H  31)   -179.7688         0.011131   
    469. D(H  34,C  29,C  26,H  30)     63.1623         0.011131   
    470. D(H  34,C  29,C  26,C  25)    -58.3141         0.011131   
    471. D(H  37,C  32,C  29,H  33)   -177.5402         0.011945   
    472. D(H  36,C  32,C  29,H  34)     58.9425         0.011945   
    473. D(H  36,C  32,C  29,H  33)    -57.8512         0.011945   
    474. D(H  36,C  32,C  29,C  26)   -179.3335         0.011945   
    475. D(H  35,C  32,C  29,H  34)    178.6485         0.011945   
    476. D(H  37,C  32,C  29,C  26)     60.9775         0.011945   
    477. D(H  35,C  32,C  29,H  33)     61.8547         0.011945   
    478. D(H  35,C  32,C  29,C  26)    -59.6275         0.011945   
    479. D(H  37,C  32,C  29,H  34)    -60.7465         0.011945   
    480. D(C  63,C  39,C  38,C  62)     -0.3991         0.032139   
    481. D(C  63,C  39,C  38,S  42)    179.3425         0.032139   
    482. D(H  41,C  39,C  38,C  62)      0.2943         0.032139   
    483. D(H  41,C  39,C  38,S  42)   -179.9641         0.032139   
    484. D(C  40,C  39,C  38,C  62)   -179.3883         0.032139   
    485. D(C  40,C  39,C  38,S  42)      0.3534         0.032139   
    486. D(C  44,C  40,C  39,C  63)      1.4455         0.020426   
    487. D(C  44,C  40,C  39,H  41)     -0.3188         0.020426   
    488. D(C  44,C  40,C  39,C  38)    179.3552         0.020426   
    489. D(C  43,C  40,C  39,C  63)   -178.1461         0.020426   
    490. D(C  43,C  40,C  39,H  41)   -179.9104         0.020426   
    491. D(C  43,C  40,C  39,C  38)     -0.2365         0.020426   
    492. D(C  63,H  41,C  39,C  40)    178.1109         0.128952   
    493. D(C  63,H  41,C  39,C  38)     -1.5352         0.128952   
    494. D(C  43,S  42,C  38,C  62)    179.4765         0.005733   
    495. D(C  43,S  42,C  38,C  39)     -0.2906         0.005733   
    496. D(C  19,C  43,S  42,C  38)    179.0182         0.005480   
    497. D(S  42,C  43,C  40,C  44)   -179.5891         0.027197   
    498. D(C  40,C  43,S  42,C  38)      0.1562         0.005480   
    499. D(S  42,C  43,C  40,C  39)      0.0146         0.027197   
    500. D(C  19,C  43,C  40,C  44)      0.9389         0.027197   
    501. D(C  19,C  43,C  40,C  39)   -179.4574         0.027197   
    502. D(S  42,C  43,C  19,S  23)      1.1317         0.012830   
    503. D(S  42,C  43,C  19,C  20)   -179.1456         0.012830   
    504. D(C  40,C  43,C  19,S  23)   -179.9234         0.012830   
    505. D(C  40,C  43,C  19,C  20)     -0.2008         0.012830   
    506. D(H  47,C  44,C  40,C  43)    -55.5450         0.013585   
    507. D(H  47,C  44,C  40,C  39)    124.9150         0.013585   
    508. D(H  46,C  44,C  40,C  39)   -119.6144         0.013585   
    509. D(C  45,C  44,C  40,C  39)      2.6596         0.013585   
    510. D(H  46,C  44,C  40,C  43)     59.9257         0.013585   
    511. D(H  22,C  44,C  40,C  43)     -2.4791         0.013585   
    512. D(H  47,C  44,H  22,C  20)     84.8842         0.469484   
    513. D(C  20,C  44,C  40,C  39)    179.2984         0.013585   
    514. D(H  46,C  44,H  22,C  20)    -85.6531         0.469484   
    515. D(C  45,C  44,H  22,C  20)    177.8844         0.469484   
    516. D(C  40,C  44,H  22,C  20)      2.5793         0.469484   
    517. D(C  20,C  44,C  40,C  43)     -1.1615         0.013585   
    518. D(H  47,C  44,C  20,C  19)    107.9564         0.002875   
    519. D(H  46,C  44,C  20,H  22)     75.5268         0.002875   
    520. D(C  45,C  44,C  20,H  22)     -3.4549         0.002875   
    521. D(H  46,C  44,C  20,C  19)   -105.7784         0.002875   
    522. D(H  22,C  44,C  40,C  39)    177.9808         0.013585   
    523. D(C  45,C  44,C  20,C  21)     -6.6888         0.002875   
    524. D(C  45,C  44,C  20,C  19)    175.2399         0.002875   
    525. D(C  40,C  44,C  20,H  22)   -177.9438         0.002875   
    526. D(C  40,C  44,C  20,C  21)    178.8223         0.002875   
    527. D(C  40,C  44,C  20,C  19)      0.7510         0.002875   
    528. D(C  45,C  44,C  40,C  43)   -177.8003         0.013585   
    529. D(H  47,C  44,C  20,C  21)    -73.9723         0.002875   
    530. D(H  46,C  44,C  20,C  21)     72.2930         0.002875   
    531. D(H  22,C  44,C  20,C  21)     -3.2338         0.002875   
    532. D(H  22,C  44,C  20,C  19)    178.6948         0.002875   
    533. D(H  47,C  44,C  20,H  22)    -70.7384         0.002875   
    534. D(H  50,C  45,C  44,H  47)   -179.6649         0.012444   
    535. D(H  50,C  45,C  44,C  40)    -57.6688         0.012444   
    536. D(H  50,C  45,C  44,H  22)    126.4559         0.012444   
    537. D(H  50,C  45,C  44,C  20)    128.4075         0.012444   
    538. D(H  49,C  45,C  44,H  47)    -61.8863         0.012444   
    539. D(H  49,C  45,C  44,H  46)   -178.0837         0.012444   
    540. D(H  49,C  45,C  44,C  40)     60.1099         0.012444   
    541. D(H  49,C  45,C  44,H  22)   -115.7655         0.012444   
    542. D(H  49,C  45,C  44,C  20)   -113.8139         0.012444   
    543. D(C  48,C  45,C  44,H  47)     59.3742         0.012444   
    544. D(C  48,C  45,C  44,H  46)    -56.8232         0.012444   
    545. D(C  48,C  45,C  44,C  40)   -178.6296         0.012444   
    546. D(H  50,C  45,C  44,H  46)     64.1377         0.012444   
    547. D(C  48,C  45,C  44,H  22)      5.4950         0.012444   
    548. D(C  48,C  45,C  44,C  20)      7.4466         0.012444   
    549. D(H  53,C  48,C  45,H  50)   -179.7688         0.011131   
    550. D(H  53,C  48,C  45,H  49)     63.1623         0.011131   
    551. D(H  53,C  48,C  45,C  44)    -58.3141         0.011131   
    552. D(H  52,C  48,C  45,H  50)    -62.1272         0.011131   
    553. D(H  52,C  48,C  45,H  49)   -179.1961         0.011131   
    554. D(H  52,C  48,C  45,C  44)     59.3275         0.011131   
    555. D(C  51,C  48,C  45,H  50)     58.9542         0.011131   
    556. D(C  51,C  48,C  45,H  49)    -58.1147         0.011131   
    557. D(C  51,C  48,C  45,C  44)   -179.5911         0.011131   
    558. D(H  56,C  51,C  48,H  53)    -60.7465         0.011945   
    559. D(H  56,C  51,C  48,H  52)   -177.5402         0.011945   
    560. D(H  56,C  51,C  48,C  45)     60.9775         0.011945   
    561. D(H  55,C  51,C  48,H  53)     58.9425         0.011945   
    562. D(H  55,C  51,C  48,H  52)    -57.8512         0.011945   
    563. D(H  55,C  51,C  48,C  45)   -179.3335         0.011945   
    564. D(H  54,C  51,C  48,H  53)    178.6485         0.011945   
    565. D(H  54,C  51,C  48,H  52)     61.8547         0.011945   
    566. D(H  54,C  51,C  48,C  45)    -59.6275         0.011945   
    567. D(C  82,C  58,C  57,C  81)     -0.3991         0.032139   
    568. D(C  82,C  58,C  57,S  61)    179.3425         0.032139   
    569. D(H  60,C  58,C  57,C  81)      0.2943         0.032139   
    570. D(H  60,C  58,C  57,S  61)   -179.9641         0.032139   
    571. D(C  59,C  58,C  57,C  81)   -179.3883         0.032139   
    572. D(C  59,C  58,C  57,S  61)      0.3534         0.032139   
    573. D(C  63,C  59,C  58,C  82)      1.4455         0.020426   
    574. D(C  63,C  59,C  58,H  60)     -0.3188         0.020426   
    575. D(C  63,C  59,C  58,C  57)    179.3552         0.020426   
    576. D(C  62,C  59,C  58,C  82)   -178.1461         0.020426   
    577. D(C  62,C  59,C  58,H  60)   -179.9104         0.020426   
    578. D(C  62,C  59,C  58,C  57)     -0.2365         0.020426   
    579. D(C  82,H  60,C  58,C  59)    178.1109         0.128952   
    580. D(C  82,H  60,C  58,C  57)     -1.5352         0.128952   
    581. D(C  62,S  61,C  57,C  81)    179.4765         0.005733   
    582. D(C  62,S  61,C  57,C  58)     -0.2906         0.005733   
    583. D(C  59,C  62,S  61,C  57)      0.1562         0.005480   
    584. D(S  61,C  62,C  59,C  63)   -179.5891         0.027197   
    585. D(S  61,C  62,C  59,C  58)      0.0146         0.027197   
    586. D(C  38,C  62,C  59,C  63)      0.9389         0.027197   
    587. D(C  38,C  62,C  59,C  58)   -179.4574         0.027197   
    588. D(S  61,C  62,C  38,S  42)      1.1317         0.012830   
    589. D(S  61,C  62,C  38,C  39)   -179.1456         0.012830   
    590. D(C  38,C  62,S  61,C  57)    179.0182         0.005480   
    591. D(C  59,C  62,C  38,S  42)   -179.9234         0.012830   
    592. D(C  59,C  62,C  38,C  39)     -0.2008         0.012830   
    593. D(C  59,C  63,C  39,C  38)      0.7510         0.002875   
    594. D(H  41,C  63,C  39,C  40)     -3.2338         0.002875   
    595. D(H  41,C  63,C  39,C  38)    178.6948         0.002875   
    596. D(H  66,C  63,C  59,C  62)    -55.5450         0.013585   
    597. D(H  65,C  63,C  59,C  62)     59.9257         0.013585   
    598. D(H  65,C  63,C  59,C  58)   -119.6144         0.013585   
    599. D(C  64,C  63,C  59,C  62)   -177.8003         0.013585   
    600. D(C  64,C  63,C  59,C  58)      2.6596         0.013585   
    601. D(H  41,C  63,C  59,C  62)     -2.4791         0.013585   
    602. D(H  41,C  63,C  59,C  58)    177.9808         0.013585   
    603. D(C  39,C  63,C  59,C  62)     -1.1615         0.013585   
    604. D(C  39,C  63,C  59,C  58)    179.2984         0.013585   
    605. D(H  66,C  63,H  41,C  39)     84.8842         0.469484   
    606. D(H  65,C  63,H  41,C  39)    -85.6531         0.469484   
    607. D(C  64,C  63,H  41,C  39)    177.8844         0.469484   
    608. D(C  59,C  63,H  41,C  39)      2.5793         0.469484   
    609. D(H  66,C  63,C  39,H  41)    -70.7384         0.002875   
    610. D(H  66,C  63,C  39,C  40)    -73.9723         0.002875   
    611. D(H  66,C  63,C  39,C  38)    107.9564         0.002875   
    612. D(H  65,C  63,C  39,H  41)     75.5268         0.002875   
    613. D(H  65,C  63,C  39,C  40)     72.2930         0.002875   
    614. D(H  65,C  63,C  39,C  38)   -105.7784         0.002875   
    615. D(C  64,C  63,C  39,H  41)     -3.4549         0.002875   
    616. D(C  64,C  63,C  39,C  40)     -6.6888         0.002875   
    617. D(C  64,C  63,C  39,C  38)    175.2399         0.002875   
    618. D(H  66,C  63,C  59,C  58)    124.9150         0.013585   
    619. D(C  59,C  63,C  39,H  41)   -177.9438         0.002875   
    620. D(C  59,C  63,C  39,C  40)    178.8223         0.002875   
    621. D(H  69,C  64,C  63,H  65)     64.1377         0.012444   
    622. D(H  69,C  64,C  63,C  59)    -57.6688         0.012444   
    623. D(H  69,C  64,C  63,H  41)    126.4559         0.012444   
    624. D(H  69,C  64,C  63,C  39)    128.4075         0.012444   
    625. D(H  68,C  64,C  63,H  66)    -61.8863         0.012444   
    626. D(H  68,C  64,C  63,H  65)   -178.0837         0.012444   
    627. D(H  68,C  64,C  63,C  59)     60.1099         0.012444   
    628. D(H  68,C  64,C  63,H  41)   -115.7655         0.012444   
    629. D(H  68,C  64,C  63,C  39)   -113.8139         0.012444   
    630. D(C  67,C  64,C  63,H  66)     59.3742         0.012444   
    631. D(C  67,C  64,C  63,H  65)    -56.8232         0.012444   
    632. D(C  67,C  64,C  63,C  59)   -178.6296         0.012444   
    633. D(C  67,C  64,C  63,H  41)      5.4950         0.012444   
    634. D(H  69,C  64,C  63,H  66)   -179.6649         0.012444   
    635. D(C  67,C  64,C  63,C  39)      7.4466         0.012444   
    636. D(H  72,C  67,C  64,H  69)   -179.7688         0.011131   
    637. D(H  72,C  67,C  64,H  68)     63.1623         0.011131   
    638. D(H  72,C  67,C  64,C  63)    -58.3141         0.011131   
    639. D(H  71,C  67,C  64,H  69)    -62.1272         0.011131   
    640. D(H  71,C  67,C  64,H  68)   -179.1961         0.011131   
    641. D(H  71,C  67,C  64,C  63)     59.3275         0.011131   
    642. D(C  70,C  67,C  64,H  69)     58.9542         0.011131   
    643. D(C  70,C  67,C  64,H  68)    -58.1147         0.011131   
    644. D(C  70,C  67,C  64,C  63)   -179.5911         0.011131   
    645. D(H  75,C  70,C  67,H  72)    -60.7465         0.011945   
    646. D(H  75,C  70,C  67,H  71)   -177.5402         0.011945   
    647. D(H  75,C  70,C  67,C  64)     60.9775         0.011945   
    648. D(H  74,C  70,C  67,H  72)     58.9425         0.011945   
    649. D(H  74,C  70,C  67,H  71)    -57.8512         0.011945   
    650. D(H  74,C  70,C  67,C  64)   -179.3335         0.011945   
    651. D(H  73,C  70,C  67,H  72)    178.6485         0.011945   
    652. D(H  73,C  70,C  67,H  71)     61.8547         0.011945   
    653. D(H  73,C  70,C  67,C  64)    -59.6275         0.011945   
    654. D(H  79,C  77,C  76,S  80)   -179.9641         0.026792   
    655. D(C  78,C  77,C  76,S  80)      0.3534         0.026792   
    656. D(C  82,C  78,C  77,H  79)     -0.3188         0.018834   
    657. D(C  82,C  78,C  77,C  76)    179.3552         0.018834   
    658. D(C  81,C  78,C  77,H  79)   -179.9104         0.018834   
    659. D(C  81,C  78,C  77,C  76)     -0.2365         0.018834   
    660. D(C  81,S  80,C  76,C  77)     -0.2906         0.005228   
    661. D(C  78,C  81,S  80,C  76)      0.1562         0.005480   
    662. D(C  57,C  81,S  80,C  76)    179.0182         0.005480   
    663. D(S  80,C  81,C  78,C  82)   -179.5891         0.027197   
    664. D(S  80,C  81,C  78,C  77)      0.0146         0.027197   
    665. D(C  57,C  81,C  78,C  82)      0.9389         0.027197   
    666. D(C  57,C  81,C  78,C  77)   -179.4574         0.027197   
    667. D(S  80,C  81,C  57,S  61)      1.1317         0.012830   
    668. D(S  80,C  81,C  57,C  58)   -179.1456         0.012830   
    669. D(C  78,C  81,C  57,S  61)   -179.9234         0.012830   
    670. D(C  78,C  81,C  57,C  58)     -0.2008         0.012830   
    671. D(H  85,C  82,C  78,C  81)    -55.5450         0.013585   
    672. D(H  85,C  82,C  78,C  77)    124.9150         0.013585   
    673. D(H  84,C  82,C  78,C  81)     59.9257         0.013585   
    674. D(H  84,C  82,C  78,C  77)   -119.6144         0.013585   
    675. D(C  83,C  82,C  78,C  81)   -177.8003         0.013585   
    676. D(C  83,C  82,C  78,C  77)      2.6596         0.013585   
    677. D(H  60,C  82,C  78,C  81)     -2.4791         0.013585   
    678. D(C  58,C  82,C  78,C  81)     -1.1615         0.013585   
    679. D(C  58,C  82,C  78,C  77)    179.2984         0.013585   
    680. D(H  85,C  82,H  60,C  58)     84.8842         0.469484   
    681. D(H  84,C  82,H  60,C  58)    -85.6531         0.469484   
    682. D(C  83,C  82,H  60,C  58)    177.8844         0.469484   
    683. D(C  78,C  82,H  60,C  58)      2.5793         0.469484   
    684. D(H  85,C  82,C  58,H  60)    -70.7384         0.002875   
    685. D(H  85,C  82,C  58,C  59)    -73.9723         0.002875   
    686. D(H  85,C  82,C  58,C  57)    107.9564         0.002875   
    687. D(H  84,C  82,C  58,H  60)     75.5268         0.002875   
    688. D(H  84,C  82,C  58,C  59)     72.2930         0.002875   
    689. D(H  84,C  82,C  58,C  57)   -105.7784         0.002875   
    690. D(H  60,C  82,C  78,C  77)    177.9808         0.013585   
    691. D(C  83,C  82,C  58,H  60)     -3.4549         0.002875   
    692. D(C  83,C  82,C  58,C  59)     -6.6888         0.002875   
    693. D(C  83,C  82,C  58,C  57)    175.2399         0.002875   
    694. D(C  78,C  82,C  58,H  60)   -177.9438         0.002875   
    695. D(C  78,C  82,C  58,C  59)    178.8223         0.002875   
    696. D(C  78,C  82,C  58,C  57)      0.7510         0.002875   
    697. D(H  60,C  82,C  58,C  59)     -3.2338         0.002875   
    698. D(H  60,C  82,C  58,C  57)    178.6948         0.002875   
    699. D(H  88,C  83,C  82,H  85)   -179.6649         0.012444   
    700. D(H  88,C  83,C  82,H  84)     64.1377         0.012444   
    701. D(H  88,C  83,C  82,C  78)    -57.6688         0.012444   
    702. D(H  88,C  83,C  82,H  60)    126.4559         0.012444   
    703. D(H  88,C  83,C  82,C  58)    128.4075         0.012444   
    704. D(H  87,C  83,C  82,H  85)    -61.8863         0.012444   
    705. D(H  87,C  83,C  82,H  84)   -178.0837         0.012444   
    706. D(H  87,C  83,C  82,C  78)     60.1099         0.012444   
    707. D(H  87,C  83,C  82,H  60)   -115.7655         0.012444   
    708. D(H  87,C  83,C  82,C  58)   -113.8139         0.012444   
    709. D(C  86,C  83,C  82,H  85)     59.3742         0.012444   
    710. D(C  86,C  83,C  82,H  84)    -56.8232         0.012444   
    711. D(C  86,C  83,C  82,C  78)   -178.6296         0.012444   
    712. D(C  86,C  83,C  82,H  60)      5.4950         0.012444   
    713. D(C  86,C  83,C  82,C  58)      7.4466         0.012444   
    714. D(H  91,C  86,C  83,H  88)   -179.7688         0.011131   
    715. D(H  91,C  86,C  83,H  87)     63.1623         0.011131   
    716. D(H  91,C  86,C  83,C  82)    -58.3141         0.011131   
    717. D(H  90,C  86,C  83,H  88)    -62.1272         0.011131   
    718. D(H  90,C  86,C  83,H  87)   -179.1961         0.011131   
    719. D(H  90,C  86,C  83,C  82)     59.3275         0.011131   
    720. D(C  89,C  86,C  83,H  88)     58.9542         0.011131   
    721. D(C  89,C  86,C  83,H  87)    -58.1147         0.011131   
    722. D(C  89,C  86,C  83,C  82)   -179.5911         0.011131   
    723. D(H  94,C  89,C  86,H  90)   -177.5402         0.011945   
    724. D(H  94,C  89,C  86,C  83)     60.9775         0.011945   
    725. D(H  93,C  89,C  86,H  91)     58.9425         0.011945   
    726. D(H  93,C  89,C  86,H  90)    -57.8512         0.011945   
    727. D(H  93,C  89,C  86,C  83)   -179.3335         0.011945   
    728. D(H  92,C  89,C  86,H  91)    178.6485         0.011945   
    729. D(H  92,C  89,C  86,H  90)     61.8547         0.011945   
    730. D(H  94,C  89,C  86,H  91)    -60.7465         0.011945   
    731. D(H  92,C  89,C  86,C  83)    -59.6275         0.011945   
    -----------------------------------------------------------------

Number of atoms                         .... 95
Number of degrees of freedom            .... 731

         *************************************************************
         *                GEOMETRY OPTIMIZATION CYCLE   1            *
         *************************************************************
---------------------------------
CARTESIAN COORDINATES (ANGSTROEM)
---------------------------------
  C     -1.705340   -0.682630    0.022160
  C     -2.363400    0.528020   -0.020910
  C     -3.794600    0.397680   -0.009440
  H     -1.833130    1.472110   -0.054160
  S     -2.800220   -1.986780    0.066980
  C     -4.156050   -0.942890    0.037830
  C     -4.791310    1.532020   -0.034320
  C     -4.198670    2.938760   -0.139280
  H     -5.397290    1.470050    0.879060
  H     -5.470730    1.372650   -0.881890
  C     -5.301350    3.999510   -0.121370
  H     -3.616690    3.030500   -1.064860
  H     -3.510190    3.119890    0.695380
  C     -4.731730    5.404200   -0.234900
  H     -5.876390    3.920470    0.808740
  H     -5.998900    3.826710   -0.949190
  H     -4.047430    5.618810    0.592060
  H     -5.539120    6.142830   -0.207760
  H     -4.186520    5.531510   -1.175440
  C      2.211910   -0.682630    0.022160
  C      1.553850    0.528020   -0.020910
  C      0.122650    0.397680   -0.009440
  H      2.084120    1.472110   -0.054160
  S      1.117030   -1.986780    0.066980
  C     -0.238800   -0.942890    0.037830
  C     -0.874060    1.532020   -0.034320
  C     -0.281420    2.938760   -0.139280
  H     -1.480040    1.470050    0.879060
  H     -1.553480    1.372650   -0.881890
  C     -1.384100    3.999510   -0.121370
  H      0.300560    3.030500   -1.064860
  H      0.407060    3.119890    0.695380
  C     -0.814480    5.404200   -0.234900
  H     -1.959140    3.920470    0.808740
  H     -2.081650    3.826710   -0.949190
  H     -0.130180    5.618810    0.592060
  H     -1.621870    6.142830   -0.207760
  H     -0.269270    5.531510   -1.175440
  C      6.129160   -0.682630    0.022160
  C      5.471100    0.528020   -0.020910
  C      4.039900    0.397680   -0.009440
  H      6.001370    1.472110   -0.054160
  S      5.034280   -1.986780    0.066980
  C      3.678450   -0.942890    0.037830
  C      3.043190    1.532020   -0.034320
  C      3.635830    2.938760   -0.139280
  H      2.437210    1.470050    0.879060
  H      2.363770    1.372650   -0.881890
  C      2.533150    3.999510   -0.121370
  H      4.217810    3.030500   -1.064860
  H      4.324310    3.119890    0.695380
  C      3.102770    5.404200   -0.234900
  H      1.958110    3.920470    0.808740
  H      1.835600    3.826710   -0.949190
  H      3.787070    5.618810    0.592060
  H      2.295380    6.142830   -0.207760
  H      3.647980    5.531510   -1.175440
  C     10.046410   -0.682630    0.022160
  C      9.388350    0.528020   -0.020910
  C      7.957150    0.397680   -0.009440
  H      9.918620    1.472110   -0.054160
  S      8.951530   -1.986780    0.066980
  C      7.595700   -0.942890    0.037830
  C      6.960440    1.532020   -0.034320
  C      7.553080    2.938760   -0.139280
  H      6.354460    1.470050    0.879060
  H      6.281020    1.372650   -0.881890
  C      6.450400    3.999510   -0.121370
  H      8.135060    3.030500   -1.064860
  H      8.241560    3.119890    0.695380
  C      7.020020    5.404200   -0.234900
  H      5.875360    3.920470    0.808740
  H      5.752850    3.826710   -0.949190
  H      7.704320    5.618810    0.592060
  H      6.212630    6.142830   -0.207760
  H      7.565230    5.531510   -1.175440
  C     13.963660   -0.682630    0.022160
  C     13.305600    0.528020   -0.020910
  C     11.874400    0.397680   -0.009440
  H     13.835870    1.472110   -0.054160
  S     12.868780   -1.986780    0.066980
  C     11.512950   -0.942890    0.037830
  C     10.877690    1.532020   -0.034320
  C     11.470330    2.938760   -0.139280
  H     10.271710    1.470050    0.879060
  H     10.198270    1.372650   -0.881890
  C     10.367650    3.999510   -0.121370
  H     12.052310    3.030500   -1.064860
  H     12.158810    3.119890    0.695380
  C     10.937270    5.404200   -0.234900
  H      9.792610    3.920470    0.808740
  H      9.670100    3.826710   -0.949190
  H     11.621570    5.618810    0.592060
  H     10.129880    6.142830   -0.207760
  H     11.482480    5.531510   -1.175440

----------------------------
CARTESIAN COORDINATES (A.U.)
----------------------------
  NO LB      ZA    FRAG    MASS        X           Y           Z
   0 C     6.0000    0    12.011         -3.222625565221267         -1.289983750798664          0.041876331127695
   1 C     6.0000    0    12.011         -4.466178744909486          0.997813193233099         -0.039514173460293
   2 C     6.0000    0    12.011         -7.170754787777581          0.751506288937803         -0.017839014704217
   3 H     1.0000    0     1.008         -3.464113667875064          2.781884739006814         -0.102347567413175
   4 S    16.0000    0    32.060         -5.291648914728968         -3.754470088352064          0.126573856450045
   5 C     6.0000    0    12.011         -7.853796298883418         -1.781803874413009          0.071488339646241
   6 C     6.0000    0    12.011         -9.054263722718233          2.895098231690036         -0.064855400916177
   7 C     6.0000    0    12.011         -7.934336426711141          5.553451573322417         -0.263201055932552
   8 H     1.0000    0     1.008        -10.199399965351832          2.777991903170936          1.661182655284815
   9 H     1.0000    0     1.008        -10.338181452627008          2.593932577727006         -1.666530580243813
  10 C     6.0000    0    12.011        -10.018099640063427          7.557978569879385         -0.229356060874022
  11 H     1.0000    0     1.008         -6.834553611291652          5.726815048848353         -2.012293770967384
  12 H     1.0000    0     1.008         -6.633297778029038          5.895737667959573          1.314077759006160
  13 C     6.0000    0    12.011         -8.941673839659204         10.212457972937228         -0.443896668858102
  14 H     1.0000    0     1.008        -11.104767756113503          7.408614616254249          1.528297113547473
  15 H     1.0000    0     1.008        -11.336278104780197          7.231433893937792         -1.793709149056713
  16 H     1.0000    0     1.008         -7.648534246216892         10.618012098538069          1.118831254849416
  17 H     1.0000    0     1.008        -10.467419822925883         11.608266387235483         -0.392609501583479
  18 H     1.0000    0     1.008         -7.911376254183998         10.453039007046742         -2.221259686856396
  19 C     6.0000    0    12.011          4.179904132881756         -1.289983750798664          0.041876331127695
  20 C     6.0000    0    12.011          2.936350953193537          0.997813193233099         -0.039514173460293
  21 C     6.0000    0    12.011          0.231774910325442          0.751506288937803         -0.017839014704217
  22 H     1.0000    0     1.008          3.938416030227959          2.781884739006814         -0.102347567413175
  23 S    16.0000    0    32.060          2.110880783374056         -3.754470088352064          0.126573856450045
  24 C     6.0000    0    12.011         -0.451266600780395         -1.781803874413009          0.071488339646241
  25 C     6.0000    0    12.011         -1.651734024615209          2.895098231690036         -0.064855400916177
  26 C     6.0000    0    12.011         -0.531806728608119          5.553451573322417         -0.263201055932552
  27 H     1.0000    0     1.008         -2.796870267248809          2.777991903170936          1.661182655284815
  28 H     1.0000    0     1.008         -2.935651754523986          2.593932577727006         -1.666530580243813
  29 C     6.0000    0    12.011         -2.615569941960405          7.557978569879385         -0.229356060874022
  30 H     1.0000    0     1.008          0.567976086811371          5.726815048848353         -2.012293770967384
  31 H     1.0000    0     1.008          0.769231920073985          5.895737667959573          1.314077759006160
  32 C     6.0000    0    12.011         -1.539144141556181         10.212457972937228         -0.443896668858102
  33 H     1.0000    0     1.008         -3.702238058010481          7.408614616254249          1.528297113547473
  34 H     1.0000    0     1.008         -3.933748406677173          7.231433893937792         -1.793709149056713
  35 H     1.0000    0     1.008         -0.246004548113869         10.618012098538069          1.118831254849416
  36 H     1.0000    0     1.008         -3.064890124822860         11.608266387235483         -0.392609501583479
  37 H     1.0000    0     1.008         -0.508846556080975         10.453039007046742         -2.221259686856396
  38 C     6.0000    0    12.011         11.582433830984778         -1.289983750798664          0.041876331127695
  39 C     6.0000    0    12.011         10.338880651296559          0.997813193233099         -0.039514173460293
  40 C     6.0000    0    12.011          7.634304608428465          0.751506288937803         -0.017839014704217
  41 H     1.0000    0     1.008         11.340945728330981          2.781884739006814         -0.102347567413175
  42 S    16.0000    0    32.060          9.513410481477079         -3.754470088352064          0.126573856450045
  43 C     6.0000    0    12.011          6.951263097322628         -1.781803874413009          0.071488339646241
  44 C     6.0000    0    12.011          5.750795673487814          2.895098231690036         -0.064855400916177
  45 C     6.0000    0    12.011          6.870722969494905          5.553451573322417         -0.263201055932552
  46 H     1.0000    0     1.008          4.605659430854214          2.777991903170936          1.661182655284815
  47 H     1.0000    0     1.008          4.466877943579037          2.593932577727006         -1.666530580243813
  48 C     6.0000    0    12.011          4.786959756142618          7.557978569879385         -0.229356060874022
  49 H     1.0000    0     1.008          7.970505784914395          5.726815048848353         -2.012293770967384
  50 H     1.0000    0     1.008          8.171761618177007          5.895737667959573          1.314077759006160
  51 C     6.0000    0    12.011          5.863385556546842         10.212457972937228         -0.443896668858102
  52 H     1.0000    0     1.008          3.700291640092542          7.408614616254249          1.528297113547473
  53 H     1.0000    0     1.008          3.468781291425850          7.231433893937792         -1.793709149056713
  54 H     1.0000    0     1.008          7.156525149989155         10.618012098538069          1.118831254849416
  55 H     1.0000    0     1.008          4.337639573280163         11.608266387235483         -0.392609501583479
  56 H     1.0000    0     1.008          6.893683142022048         10.453039007046742         -2.221259686856396
  57 C     6.0000    0    12.011         18.984963529087800         -1.289983750798664          0.041876331127695
  58 C     6.0000    0    12.011         17.741410349399583          0.997813193233099         -0.039514173460293
  59 C     6.0000    0    12.011         15.036834306531489          0.751506288937803         -0.017839014704217
  60 H     1.0000    0     1.008         18.743475426434006          2.781884739006814         -0.102347567413175
  61 S    16.0000    0    32.060         16.915940179580101         -3.754470088352064          0.126573856450045
  62 C     6.0000    0    12.011         14.353792795425651         -1.781803874413009          0.071488339646241
  63 C     6.0000    0    12.011         13.153325371590837          2.895098231690036         -0.064855400916177
  64 C     6.0000    0    12.011         14.273252667597927          5.553451573322417         -0.263201055932552
  65 H     1.0000    0     1.008         12.008189128957238          2.777991903170936          1.661182655284815
  66 H     1.0000    0     1.008         11.869407641682059          2.593932577727006         -1.666530580243813
  67 C     6.0000    0    12.011         12.189489454245642          7.557978569879385         -0.229356060874022
  68 H     1.0000    0     1.008         15.373035483017416          5.726815048848353         -2.012293770967384
  69 H     1.0000    0     1.008         15.574291316280030          5.895737667959573          1.314077759006160
  70 C     6.0000    0    12.011         13.265915254649865         10.212457972937228         -0.443896668858102
  71 H     1.0000    0     1.008         11.102821338195564          7.408614616254249          1.528297113547473
  72 H     1.0000    0     1.008         10.871310989528872          7.231433893937792         -1.793709149056713
  73 H     1.0000    0     1.008         14.559054848092178         10.618012098538069          1.118831254849416
  74 H     1.0000    0     1.008         11.740169271383186         11.608266387235483         -0.392609501583479
  75 H     1.0000    0     1.008         14.296212840125071         10.453039007046742         -2.221259686856396
  76 C     6.0000    0    12.011         26.387493227190827         -1.289983750798664          0.041876331127695
  77 C     6.0000    0    12.011         25.143940047502607          0.997813193233099         -0.039514173460293
  78 C     6.0000    0    12.011         22.439364004634509          0.751506288937803         -0.017839014704217
  79 H     1.0000    0     1.008         26.146005124537027          2.781884739006814         -0.102347567413175
  80 S    16.0000    0    32.060         24.318469877683125         -3.754470088352064          0.126573856450045
  81 C     6.0000    0    12.011         21.756322493528675         -1.781803874413009          0.071488339646241
  82 C     6.0000    0    12.011         20.555855069693859          2.895098231690036         -0.064855400916177
  83 C     6.0000    0    12.011         21.675782365700950          5.553451573322417         -0.263201055932552
  84 H     1.0000    0     1.008         19.410718827060261          2.777991903170936          1.661182655284815
  85 H     1.0000    0     1.008         19.271937339785083          2.593932577727006         -1.666530580243813
  86 C     6.0000    0    12.011         19.592019152348662          7.557978569879385         -0.229356060874022
  87 H     1.0000    0     1.008         22.775565181120442          5.726815048848353         -2.012293770967384
  88 H     1.0000    0     1.008         22.976821014383056          5.895737667959573          1.314077759006160
  89 C     6.0000    0    12.011         20.668444952752889         10.212457972937228         -0.443896668858102
  90 H     1.0000    0     1.008         18.505351036298588          7.408614616254249          1.528297113547473
  91 H     1.0000    0     1.008         18.273840687631896          7.231433893937792         -1.793709149056713
  92 H     1.0000    0     1.008         21.961584546195201         10.618012098538069          1.118831254849416
  93 H     1.0000    0     1.008         19.142698969486208         11.608266387235483         -0.392609501583479
  94 H     1.0000    0     1.008         21.698742538228096         10.453039007046742         -2.221259686856396

--------------------------------
INTERNAL COORDINATES (ANGSTROEM)
--------------------------------
 C      0   0   0   0.000000     0.000     0.000
 C      1   0   0   1.378612     0.000     0.000
 C      2   1   0   1.437169   113.295     0.000
 H      2   1   3   1.083327   122.182   179.683
 S      1   2   3   1.703402   111.490     0.353
 C      3   2   1   1.389247   110.297   359.764
 C      3   2   1   1.510224   126.085   179.355
 C      7   3   2   1.530084   115.853     2.660
 H      7   3   2   1.097868   107.949   240.386
 H      7   3   2   1.097900   108.186   124.915
 C      8   7   3   1.530168   110.942   181.370
 H      8   7   3   1.097185   109.889    60.110
 H      8   7   3   1.097028   110.041   302.331
 C     11   8   7   1.520036   111.697   180.409
 H     11   8   7   1.096368   109.750    59.328
 H     11   8   7   1.096231   109.903   301.686
 H     14  11   8   1.094617   111.040   300.372
 H     14  11   8   1.094618   110.201   180.666
 H     14  11   8   1.094567   110.997    60.978
 C      1   2   3   3.917250   118.511   180.296
 C     20   1   2   1.378612    61.489     0.000
 C     21  20   1   1.437169   113.295     0.296
 H     21  20   1   1.083327   122.182   179.979
 S     20   1   2   1.703402    50.002   180.069
 C     22  21  20   1.389247   110.297   359.764
 C      4   2   1   0.961144   122.828   358.465
 C     26   4   2   1.530084   116.256   177.884
 H      4   2   1   0.997786    98.205   289.234
 H      4   2   1   0.879337    94.933    71.503
 C     27  26   4   1.530168   110.942     5.495
 H     27  26   4   1.097185   109.889   244.234
 H     27  26   4   1.097028   110.041   126.456
 C     30  27  26   1.520036   111.697   180.409
 H     30  27  26   1.096368   109.750    59.328
 H     30  27  26   1.096231   109.903   301.686
 H     33  30  27   1.094617   111.040   300.372
 H     33  30  27   1.094618   110.201   180.666
 H     33  30  27   1.094567   110.997    60.978
 C     20   1   2   3.917250   180.000     0.000
 C     39  20  21   1.378612    61.489     0.000
 C     40  39  20   1.437169   113.295     0.296
 H     40  39  20   1.083327   122.182   179.979
 S     39  20  21   1.703402    50.002   180.069
 C     41  40  39   1.389247   110.297   359.764
 C     23  21  20   0.961144   122.828   358.465
 C     45  23  21   1.530084   116.256   177.884
 H     23  21  20   0.997786    98.205   289.234
 H     23  21  20   0.879337    94.933    71.503
 C     46  45  23   1.530168   110.942     5.495
 H     46  45  23   1.097185   109.889   244.234
 H     46  45  23   1.097028   110.041   126.456
 C     49  46  45   1.520036   111.697   180.409
 H     49  46  45   1.096368   109.750    59.328
 H     49  46  45   1.096231   109.903   301.686
 H     52  49  46   1.094617   111.040   300.372
 H     52  49  46   1.094618   110.201   180.666
 H     52  49  46   1.094567   110.997    60.978
 C     39  20  21   3.917250   180.000     0.000
 C     58  39  40   1.378612    61.489     0.000
 C     59  58  39   1.437169   113.295     0.296
 H     59  58  39   1.083327   122.182   179.979
 S     58  39  40   1.703402    50.002   180.069
 C     60  59  58   1.389247   110.297   359.764
 C     42  40  39   0.961144   122.828   358.465
 C     64  42  40   1.530084   116.256   177.884
 H     42  40  39   0.997786    98.205   289.234
 H     42  40  39   0.879337    94.933    71.503
 C     65  64  42   1.530168   110.942     5.495
 H     65  64  42   1.097185   109.889   244.234
 H     65  64  42   1.097028   110.041   126.456
 C     68  65  64   1.520036   111.697   180.409
 H     68  65  64   1.096368   109.750    59.328
 H     68  65  64   1.096231   109.903   301.686
 H     71  68  65   1.094617   111.040   300.372
 H     71  68  65   1.094618   110.201   180.666
 H     71  68  65   1.094567   110.997    60.978
 C     58  39  40   3.917250   180.000     0.000
 C     77  58  59   1.378612    61.489     0.000
 C     78  77  58   1.437169   113.295     0.296
 H     78  77  58   1.083327   122.182   179.979
 S     77  58  59   1.703402    50.002   180.069
 C     79  78  77   1.389247   110.297   359.764
 C     61  59  58   0.961144   122.828   358.465
 C     83  61  59   1.530084   116.256   177.884
 H     61  59  58   0.997786    98.205   289.234
 H     61  59  58   0.879337    94.933    71.503
 C     84  83  61   1.530168   110.942     5.495
 H     84  83  61   1.097185   109.889   244.234
 H     84  83  61   1.097028   110.041   126.456
 C     87  84  83   1.520036   111.697   180.409
 H     87  84  83   1.096368   109.750    59.328
 H     87  84  83   1.096231   109.903   301.686
 H     90  87  84   1.094617   111.040   300.372
 H     90  87  84   1.094618   110.201   180.666
 H     90  87  84   1.094567   110.997    60.978

---------------------------
INTERNAL COORDINATES (A.U.)
---------------------------
 C      0   0   0   0.000000     0.000     0.000
 C      1   0   0   2.605199     0.000     0.000
 C      2   1   0   2.715855   113.295     0.000
 H      2   1   3   2.047192   122.182   179.683
 S      1   2   3   3.218963   111.490     0.353
 C      3   2   1   2.625297   110.297   359.764
 C      3   2   1   2.853910   126.085   179.355
 C      7   3   2   2.891439   115.853     2.660
 H      7   3   2   2.074671   107.949   240.386
 H      7   3   2   2.074731   108.186   124.915
 C      8   7   3   2.891599   110.942   181.370
 H      8   7   3   2.073379   109.889    60.110
 H      8   7   3   2.073082   110.041   302.331
 C     11   8   7   2.872452   111.697   180.409
 H     11   8   7   2.071835   109.750    59.328
 H     11   8   7   2.071576   109.903   301.686
 H     14  11   8   2.068527   111.040   300.372
 H     14  11   8   2.068529   110.201   180.666
 H     14  11   8   2.068432   110.997    60.978
 C      1   2   3   7.402530   118.511   180.296
 C     20   1   2   2.605199    61.489     0.000
 C     21  20   1   2.715855   113.295     0.296
 H     21  20   1   2.047192   122.182   179.979
 S     20   1   2   3.218963    50.002   180.069
 C     22  21  20   2.625297   110.297   359.764
 C      4   2   1   1.816299   122.828   358.465
 C     26   4   2   2.891439   116.256   177.884
 H      4   2   1   1.885542    98.205   289.234
 H      4   2   1   1.661706    94.933    71.503
 C     27  26   4   2.891599   110.942     5.495
 H     27  26   4   2.073379   109.889   244.234
 H     27  26   4   2.073082   110.041   126.456
 C     30  27  26   2.872452   111.697   180.409
 H     30  27  26   2.071835   109.750    59.328
 H     30  27  26   2.071576   109.903   301.686
 H     33  30  27   2.068527   111.040   300.372
 H     33  30  27   2.068529   110.201   180.666
 H     33  30  27   2.068432   110.997    60.978
 C     20   1   2   7.402530   180.000     0.000
 C     39  20  21   2.605199    61.489     0.000
 C     40  39  20   2.715855   113.295     0.296
 H     40  39  20   2.047192   122.182   179.979
 S     39  20  21   3.218963    50.002   180.069
 C     41  40  39   2.625297   110.297   359.764
 C     23  21  20   1.816299   122.828   358.465
 C     45  23  21   2.891439   116.256   177.884
 H     23  21  20   1.885542    98.205   289.234
 H     23  21  20   1.661706    94.933    71.503
 C     46  45  23   2.891599   110.942     5.495
 H     46  45  23   2.073379   109.889   244.234
 H     46  45  23   2.073082   110.041   126.456
 C     49  46  45   2.872452   111.697   180.409
 H     49  46  45   2.071835   109.750    59.328
 H     49  46  45   2.071576   109.903   301.686
 H     52  49  46   2.068527   111.040   300.372
 H     52  49  46   2.068529   110.201   180.666
 H     52  49  46   2.068432   110.997    60.978
 C     39  20  21   7.402530   180.000     0.000
 C     58  39  40   2.605199    61.489     0.000
 C     59  58  39   2.715855   113.295     0.296
 H     59  58  39   2.047192   122.182   179.979
 S     58  39  40   3.218963    50.002   180.069
 C     60  59  58   2.625297   110.297   359.764
 C     42  40  39   1.816299   122.828   358.465
 C     64  42  40   2.891439   116.256   177.884
 H     42  40  39   1.885542    98.205   289.234
 H     42  40  39   1.661706    94.933    71.503
 C     65  64  42   2.891599   110.942     5.495
 H     65  64  42   2.073379   109.889   244.234
 H     65  64  42   2.073082   110.041   126.456
 C     68  65  64   2.872452   111.697   180.409
 H     68  65  64   2.071835   109.750    59.328
 H     68  65  64   2.071576   109.903   301.686
 H     71  68  65   2.068527   111.040   300.372
 H     71  68  65   2.068529   110.201   180.666
 H     71  68  65   2.068432   110.997    60.978
 C     58  39  40   7.402530   180.000     0.000
 C     77  58  59   2.605199    61.489     0.000
 C     78  77  58   2.715855   113.295     0.296
 H     78  77  58   2.047192   122.182   179.979
 S     77  58  59   3.218963    50.002   180.069
 C     79  78  77   2.625297   110.297   359.764
 C     61  59  58   1.816299   122.828   358.465
 C     83  61  59   2.891439   116.256   177.884
 H     61  59  58   1.885542    98.205   289.234
 H     61  59  58   1.661706    94.933    71.503
 C     84  83  61   2.891599   110.942     5.495
 H     84  83  61   2.073379   109.889   244.234
 H     84  83  61   2.073082   110.041   126.456
 C     87  84  83   2.872452   111.697   180.409
 H     87  84  83   2.071835   109.750    59.328
 H     87  84  83   2.071576   109.903   301.686
 H     90  87  84   2.068527   111.040   300.372
 H     90  87  84   2.068529   110.201   180.666
 H     90  87  84   2.068432   110.997    60.978

---------------------
BASIS SET INFORMATION
---------------------
There are 3 groups of distinct atoms

 Group   1 Type C   : 11s5p1d contracted to 4s3p1d pattern {6311/311/1}
 Group   2 Type H   : 4s1p contracted to 2s1p pattern {31/1}
 Group   3 Type S   : 17s11p1d contracted to 5s4p1d pattern {66311/6311/1}

Atom   0C    basis set group =>   1
Atom   1C    basis set group =>   1
Atom   2C    basis set group =>   1
Atom   3H    basis set group =>   2
Atom   4S    basis set group =>   3
Atom   5C    basis set group =>   1
Atom   6C    basis set group =>   1
Atom   7C    basis set group =>   1
Atom   8H    basis set group =>   2
Atom   9H    basis set group =>   2
Atom  10C    basis set group =>   1
Atom  11H    basis set group =>   2
Atom  12H    basis set group =>   2
Atom  13C    basis set group =>   1
Atom  14H    basis set group =>   2
Atom  15H    basis set group =>   2
Atom  16H    basis set group =>   2
Atom  17H    basis set group =>   2
Atom  18H    basis set group =>   2
Atom  19C    basis set group =>   1
Atom  20C    basis set group =>   1
Atom  21C    basis set group =>   1
Atom  22H    basis set group =>   2
Atom  23S    basis set group =>   3
Atom  24C    basis set group =>   1
Atom  25C    basis set group =>   1
Atom  26C    basis set group =>   1
Atom  27H    basis set group =>   2
Atom  28H    basis set group =>   2
Atom  29C    basis set group =>   1
Atom  30H    basis set group =>   2
Atom  31H    basis set group =>   2
Atom  32C    basis set group =>   1
Atom  33H    basis set group =>   2
Atom  34H    basis set group =>   2
Atom  35H    basis set group =>   2
Atom  36H    basis set group =>   2
Atom  37H    basis set group =>   2
Atom  38C    basis set group =>   1
Atom  39C    basis set group =>   1
Atom  40C    basis set group =>   1
Atom  41H    basis set group =>   2
Atom  42S    basis set group =>   3
Atom  43C    basis set group =>   1
Atom  44C    basis set group =>   1
Atom  45C    basis set group =>   1
Atom  46H    basis set group =>   2
Atom  47H    basis set group =>   2
Atom  48C    basis set group =>   1
Atom  49H    basis set group =>   2
Atom  50H    basis set group =>   2
Atom  51C    basis set group =>   1
Atom  52H    basis set group =>   2
Atom  53H    basis set group =>   2
Atom  54H    basis set group =>   2
Atom  55H    basis set group =>   2
Atom  56H    basis set group =>   2
Atom  57C    basis set group =>   1
Atom  58C    basis set group =>   1
Atom  59C    basis set group =>   1
Atom  60H    basis set group =>   2
Atom  61S    basis set group =>   3
Atom  62C    basis set group =>   1
Atom  63C    basis set group =>   1
Atom  64C    basis set group =>   1
Atom  65H    basis set group =>   2
Atom  66H    basis set group =>   2
Atom  67C    basis set group =>   1
Atom  68H    basis set group =>   2
Atom  69H    basis set group =>   2
Atom  70C    basis set group =>   1
Atom  71H    basis set group =>   2
Atom  72H    basis set group =>   2
Atom  73H    basis set group =>   2
Atom  74H    basis set group =>   2
Atom  75H    basis set group =>   2
Atom  76C    basis set group =>   1
Atom  77C    basis set group =>   1
Atom  78C    basis set group =>   1
Atom  79H    basis set group =>   2
Atom  80S    basis set group =>   3
Atom  81C    basis set group =>   1
Atom  82C    basis set group =>   1
Atom  83C    basis set group =>   1
Atom  84H    basis set group =>   2
Atom  85H    basis set group =>   2
Atom  86C    basis set group =>   1
Atom  87H    basis set group =>   2
Atom  88H    basis set group =>   2
Atom  89C    basis set group =>   1
Atom  90H    basis set group =>   2
Atom  91H    basis set group =>   2
Atom  92H    basis set group =>   2
Atom  93H    basis set group =>   2
Atom  94H    basis set group =>   2


           ************************************************************
           *        Program running with 8 parallel MPI-processes     *
           *              working on a common directory               *
           ************************************************************
------------------------------------------------------------------------------
                           ORCA GTO INTEGRAL CALCULATION
------------------------------------------------------------------------------

                         BASIS SET STATISTICS AND STARTUP INFO

 # of primitive gaussian shells          ... 1075
 # of primitive gaussian functions       ... 1865
 # of contracted shell                   ...  520
 # of contracted basis functions         ... 1080
 Highest angular momentum                ...    2
 Maximum contraction depth               ...    6
 Integral package used                   ... LIBINT
 Integral threshhold            Thresh   ...  2.500e-11
 Primitive cut-off              TCut     ...  2.500e-12


                              INTEGRAL EVALUATION

 One electron integrals                  ... done
 Pre-screening matrix                    ... done
 Shell pair data                         ... done (   0.033 sec)

           ************************************************************
           *              Shut down parallel processing               *
           ************************************************************


           ************************************************************
           *        Program running with 8 parallel MPI-processes     *
           *              working on a common directory               *
           ************************************************************
-------------------------------------------------------------------------------
                                 ORCA SCF
-------------------------------------------------------------------------------

------------
SCF SETTINGS
------------
Hamiltonian:
 Density Functional     Method          .... DFT(GTOs)
 Exchange Functional    Exchange        .... B88
   X-Alpha parameter    XAlpha          ....  0.666667
   Becke's b parameter  XBeta           ....  0.004200
 Correlation Functional Correlation     .... LYP
 LDA part of GGA corr.  LDAOpt          .... VWN-5
 Gradients option       PostSCFGGA      .... off
 Hybrid DFT is turned on
   Fraction HF Exchange ScalHFX         ....  0.200000
   Scaling of DF-GGA-X  ScalDFX         ....  0.720000
   Scaling of DF-GGA-C  ScalDFC         ....  0.810000
   Scaling of DF-LDA-C  ScalLDAC        ....  1.000000
   Perturbative correction              ....  0.000000
   NL short-range parameter             ....  4.800000


General Settings:
 Integral files         IntName         .... Test
 Hartree-Fock type      HFTyp           .... RHF
 Total Charge           Charge          ....    0
 Multiplicity           Mult            ....    1
 Number of Electrons    NEL             ....  370
 Basis Dimension        Dim             .... 1080
 Nuclear Repulsion      ENuc            ....   6549.8669344612 Eh

Convergence Acceleration:
 DIIS                   CNVDIIS         .... on
   Start iteration      DIISMaxIt       ....    12
   Startup error        DIISStart       ....  0.200000
   # of expansion vecs  DIISMaxEq       ....     5
   Bias factor          DIISBfac        ....   1.050
   Max. coefficient     DIISMaxC        ....  10.000
 Newton-Raphson         CNVNR           .... off
 SOSCF                  CNVSOSCF        .... off
 Level Shifting         CNVShift        .... on
   Level shift para.    LevelShift      ....    0.2500
   Turn off err/grad.   ShiftErr        ....    0.0010
 Zerner damping         CNVZerner       .... off
 Static damping         CNVDamp         .... on
   Fraction old density DampFac         ....    0.7000
   Max. Damping (<1)    DampMax         ....    0.9800
   Min. Damping (>=0)   DampMin         ....    0.0000
   Turn off err/grad.   DampErr         ....    0.1000
 Fernandez-Rico         CNVRico         .... off

SCF Procedure:
 Maximum # iterations   MaxIter         ....   125
 SCF integral mode      SCFMode         .... Direct
   Integral package                     .... LIBINT
 Reset frequeny         DirectResetFreq ....    20
 Integral Threshold     Thresh          ....  2.500e-11 Eh
 Primitive CutOff       TCut            ....  2.500e-12 Eh

Convergence Tolerance:
 Convergence Check Mode ConvCheckMode   .... Total+1el-Energy
 Energy Change          TolE            ....  1.000e-08 Eh
 1-El. energy change                    ....  1.000e-05 Eh
 DIIS Error             TolErr          ....  5.000e-07


Diagonalization of the overlap matrix:
Smallest eigenvalue                        ... 9.934e-10
Time for diagonalization                   ...    5.536 sec
Threshold for overlap eigenvalues          ... 1.000e-08
Number of eigenvalues below threshold      ... 5
Time for construction of square roots      ...    0.256 sec
Total time needed                          ...    5.797 sec

-------------------
DFT GRID GENERATION
-------------------

General Integration Accuracy     IntAcc      ...  4.340
Radial Grid Type                 RadialGrid  ... Gauss-Chebyshev
Angular Grid (max. acc.)         AngularGrid ... Lebedev-110
Angular grid pruning method      GridPruning ... 3 (G Style)
Weight generation scheme         WeightScheme... Becke
Basis function cutoff            BFCut       ...    1.0000e-11
Integration weight cutoff        WCut        ...    1.0000e-14
Grids for H and He will be reduced by one unit

# of grid points (after initial pruning)     ... 114970 (   0.0 sec)
# of grid points (after weights+screening)   ...  98679 (   1.4 sec)
nearest neighbour list constructed           ...    0.0 sec
Grid point re-assignment to atoms done       ...    0.0 sec
Grid point division into batches done        ...    0.1 sec
Reduced shell lists constructed in    0.6 sec

Total number of grid points                  ...    98679
Total number of batches                      ...     1591
Average number of points per batch           ...       62
Average number of grid points per atom       ...     1039
Average number of shells per batch           ...   166.08 (31.94%)
Average number of basis functions per batch  ...   333.33 (30.86%)
Average number of large shells per batch     ...   108.89 (65.56%)
Average number of large basis fcns per batch ...   223.35 (67.01%)
Maximum spatial batch extension              ...  16.71, 16.39, 18.47 au
Average spatial batch extension              ...   0.38,  0.38,  0.38 au

Time for grid setup =    2.192 sec

------------------------------
INITIAL GUESS: MODEL POTENTIAL
------------------------------
Loading Hartree-Fock densities                     ... done
Calculating cut-offs                               ... done
Setting up the integral package                    ... done
Initializing the effective Hamiltonian             ... done
Starting the Coulomb interaction                   ... done (   2.2 sec)
Reading the grid                                   ... done
Mapping shells                                     ... done
Starting the XC term evaluation                    ... done (   1.9 sec)
  promolecular density results
     # of electrons  =    369.988422642
     EX              =   -346.808640104
     EC              =    -13.052759988
     EX+EC           =   -359.861400092
Transforming the Hamiltonian                       ... done (   0.1 sec)
Diagonalizing the Hamiltonian                      ... done (   0.3 sec)
Back transforming the eigenvectors                 ... done (   0.1 sec)
Now organizing SCF variables                       ... done
                      ------------------
                      INITIAL GUESS DONE (   6.9 sec)
                      ------------------
--------------
SCF ITERATIONS
--------------
ITER       Energy         Delta-E        Max-DP      RMS-DP      [F,P]     Damp
               ***  Starting incremental Fock matrix formation  ***
  0  -3540.0604188357   0.0000000000008339952.81044578 28671.53180473  0.2122408 0.7000
  1 -353440.3056018706-349900.2451830349759641282.24063398 31029.01507218  0.7752076 0.7000
  2 -1183176.4349927413-829736.1293908706876328956.92326792 19871.59003314  1.0364322 0.7000
  3 -2060222.7621472704-877046.3271545290484377957.55485723 13570.25932420  0.9584644 0.7000
  4 -2822206.5917899786-761983.8296427081803033762.19707924 9318.91291654  0.7782527 0.7000
  5 -3429140.9058698467-606934.3140798681422099719.38535804 6407.08549308  0.6007032 0.7000
  6 -3890501.4336970234-461360.5278271767311451389.80273692 4404.42543812  0.4449878 0.7000
  7 -4231621.5958720716-341120.162175048143999765.36147449 3024.61008245  0.3895741 0.7000
  8 -4479479.0616877591-247857.465815687552686757.53287891 2075.27981467  0.3427980 0.7000
  9 -4657531.8531186841-178052.791430925019468676.75078114 1422.70882914  0.2871639 0.7000
 10 -4784463.1566097466-126931.303491062485318280.68776765 977.07467292  0.2850705 0.7000
 11 -4874495.6371424757-90032.480532729067213438.31122111 673.74780730  0.2423386 0.7000
                               ***Turning on DIIS***
 12 -4938127.8147000307-63632.177557555027141860.15626305 470.34429033  0.2560305 0.7000
 13 -4982981.8123962330-44853.99769620224895951.82621390 330.81717544  0.2707980 0.7000
 14 -5014558.2400039732-31576.42760774027665490.85427918 233.22708866  0.2941382 0.7000
 15 -5036747.3117063427-22189.07170236948945760.44877267 163.34743055  0.3511228 0.7000
